 Entering Gaussian System, Link 0=/opt/gaussian/g16_legacy/g16
 Input=01-IsoP_1471_gaussian.com
 Output=01-IsoP_1471_gaussian.log
 Initial command:
 /opt/gaussian/g16_legacy/l1.exe "/scratch-local/jramos/2661329/Gau-24921.inp" -scrdir="/scratch-local/jramos/2661329/"
 Entering Link 1 = /opt/gaussian/g16_legacy/l1.exe PID=     24926.
  
 Copyright (c) 1988,1990,1992,1993,1995,1998,2003,2009,2016,
            Gaussian, Inc.  All Rights Reserved.
  
 This is part of the Gaussian(R) 16 program.  It is based on
 the Gaussian(R) 09 system (copyright 2009, Gaussian, Inc.),
 the Gaussian(R) 03 system (copyright 2003, Gaussian, Inc.),
 the Gaussian(R) 98 system (copyright 1998, Gaussian, Inc.),
 the Gaussian(R) 94 system (copyright 1995, Gaussian, Inc.),
 the Gaussian 92(TM) system (copyright 1992, Gaussian, Inc.),
 the Gaussian 90(TM) system (copyright 1990, Gaussian, Inc.),
 the Gaussian 88(TM) system (copyright 1988, Gaussian, Inc.),
 the Gaussian 86(TM) system (copyright 1986, Carnegie Mellon
 University), and the Gaussian 82(TM) system (copyright 1983,
 Carnegie Mellon University). Gaussian is a federally registered
 trademark of Gaussian, Inc.
  
 This software contains proprietary and confidential information,
 including trade secrets, belonging to Gaussian, Inc.
  
 This software is provided under written license and may be
 used, copied, transmitted, or stored only in accord with that
 written license.
  
 The following legend is applicable only to US Government
 contracts under FAR:
  
                    RESTRICTED RIGHTS LEGEND
  
 Use, reproduction and disclosure by the US Government is
 subject to restrictions as set forth in subparagraphs (a)
 and (c) of the Commercial Computer Software - Restricted
 Rights clause in FAR 52.227-19.
  
 Gaussian, Inc.
 340 Quinnipiac St., Bldg. 40, Wallingford CT 06492
  
  
 ---------------------------------------------------------------
 Warning -- This program may not be used in any manner that
 competes with the business of Gaussian, Inc. or will provide
 assistance to any competitor of Gaussian, Inc.  The licensee
 of this program is prohibited from giving any competitor of
 Gaussian, Inc. access to this program.  By using this program,
 the user acknowledges that Gaussian, Inc. is engaged in the
 business of creating and licensing software in the field of
 computational chemistry and represents and warrants to the
 licensee that it is not a competitor of Gaussian, Inc. and that
 it will not use this program in any manner prohibited above.
 ---------------------------------------------------------------
  

 Cite this work as:
 Gaussian 16, Revision A.03,
 M. J. Frisch, G. W. Trucks, H. B. Schlegel, G. E. Scuseria, 
 M. A. Robb, J. R. Cheeseman, G. Scalmani, V. Barone, 
 G. A. Petersson, H. Nakatsuji, X. Li, M. Caricato, A. V. Marenich, 
 J. Bloino, B. G. Janesko, R. Gomperts, B. Mennucci, H. P. Hratchian, 
 J. V. Ortiz, A. F. Izmaylov, J. L. Sonnenberg, D. Williams-Young, 
 F. Ding, F. Lipparini, F. Egidi, J. Goings, B. Peng, A. Petrone, 
 T. Henderson, D. Ranasinghe, V. G. Zakrzewski, J. Gao, N. Rega, 
 G. Zheng, W. Liang, M. Hada, M. Ehara, K. Toyota, R. Fukuda, 
 J. Hasegawa, M. Ishida, T. Nakajima, Y. Honda, O. Kitao, H. Nakai, 
 T. Vreven, K. Throssell, J. A. Montgomery, Jr., J. E. Peralta, 
 F. Ogliaro, M. J. Bearpark, J. J. Heyd, E. N. Brothers, K. N. Kudin, 
 V. N. Staroverov, T. A. Keith, R. Kobayashi, J. Normand, 
 K. Raghavachari, A. P. Rendell, J. C. Burant, S. S. Iyengar, 
 J. Tomasi, M. Cossi, J. M. Millam, M. Klene, C. Adamo, R. Cammi, 
 J. W. Ochterski, R. L. Martin, K. Morokuma, O. Farkas, 
 J. B. Foresman, and D. J. Fox, Gaussian, Inc., Wallingford CT, 2016.
 
 ******************************************
 Gaussian 16:  EM64L-G16RevA.03 25-Dec-2016
                17-Sep-2021 
 ******************************************
 %chk=01-IsoP_1471_gaussian.chk
 %nproc=1
 Will use up to    1 processors via shared memory.
 %mem=4000Mb
 ---------------------
 #p opt mp2/6-31g(d,p)
 ---------------------
 1/18=20,19=15,38=1/1,3;
 2/9=110,12=2,17=6,18=5,40=1/2;
 3/5=1,6=6,7=101,11=9,25=1,30=1,71=1/1,2,3;
 4//1;
 5/5=2,38=5/2;
 8/6=4,10=2/1;
 9/15=2,16=-3/6;
 10/5=1/2;
 6/7=2,8=2,9=2,10=2/1;
 7/12=2/1,2,3,16;
 1/18=20,19=15/3(2);
 2/9=110/2;
 99//99;
 2/9=110/2;
 3/5=1,6=6,7=101,11=9,25=1,30=1,71=1/1,2,3;
 4/5=5,16=3,69=1/1;
 5/5=2,38=5/2;
 8/6=4,10=2/1;
 9/15=2,16=-3/6;
 10/5=1/2;
 7/12=2/1,2,3,16;
 1/18=20,19=15/3(-8);
 2/9=110/2;
 6/7=2,8=2,9=2,10=2/1;
 99//99;
 Leave Link    1 at Fri Sep 17 13:32:33 2021, MaxMem=   524288000 cpu:               0.0 elap:               0.2
 (Enter /opt/gaussian/g16_legacy/l101.exe)
 --------------------------------------------------
 Conformer number 1471. Energy MM = 23.287 kcal/mol
 --------------------------------------------------
 Symbolic Z-matrix:
 Charge =  0 Multiplicity = 1
 C                    -0.7527    0.1565    0.5726 
 H                    -0.9044    1.2028    0.8633 
 H                    -0.2072   -0.2931    1.4132 
 C                    -2.0822   -0.5521    0.4139 
 C                    -2.0486   -2.0359    0.6777 
 H                    -1.7102   -2.232     1.7003 
 H                    -1.3646   -2.5333   -0.017 
 H                    -3.0335   -2.5004    0.5605 
 C                    -3.2382    0.0596    0.0886 
 H                    -4.145    -0.5412    0.0231 
 C                    -3.4461    1.5071   -0.2268 
 H                    -2.5153    2.072    -0.3128 
 H                    -4.0629    1.9715    0.5486 
 H                    -3.9729    1.5998   -1.182 
 C                     2.913    -1.1867   -0.1825 
 H                     3.4753   -1.3701    0.7395 
 H                     3.5139   -1.5371   -1.0278 
 H                     2.0124   -1.8028   -0.1304 
 C                     2.6244    0.2821   -0.3271 
 C                     3.8388    1.1664   -0.2133 
 H                     3.5935    2.2272   -0.3302 
 H                     4.3098    1.0403    0.7671 
 H                     4.5691    0.9073   -0.9869 
 C                     1.4035    0.8149   -0.5296 
 H                     1.3152    1.8992   -0.6002 
 C                     0.0981    0.0844   -0.6995 
 H                    -0.4415    0.5498   -1.5345 
 H                     0.2582   -0.9564   -0.9979 
 
 ITRead=  0  0  0  0  0  0  0  0  0  0  0  0  0  0  0  0  0  0  0  0
 ITRead=  0  0  0  0  0  0  0  0
 MicOpt= -1 -1 -1 -1 -1 -1 -1 -1 -1 -1 -1 -1 -1 -1 -1 -1 -1 -1 -1 -1
 MicOpt= -1 -1 -1 -1 -1 -1 -1 -1
 NAtoms=     28 NQM=       28 NQMF=       0 NMMI=      0 NMMIF=      0
                NMic=       0 NMicF=      0.
                    Isotopes and Nuclear Properties:
 (Nuclear quadrupole moments (NQMom) in fm**2, nuclear magnetic moments (NMagM)
  in nuclear magnetons)

  Atom         1           2           3           4           5           6           7           8           9          10
 IAtWgt=          12           1           1          12          12           1           1           1          12           1
 AtmWgt=  12.0000000   1.0078250   1.0078250  12.0000000  12.0000000   1.0078250   1.0078250   1.0078250  12.0000000   1.0078250
 NucSpn=           0           1           1           0           0           1           1           1           0           1
 AtZEff=  -0.0000000  -0.0000000  -0.0000000  -0.0000000  -0.0000000  -0.0000000  -0.0000000  -0.0000000  -0.0000000  -0.0000000
 NQMom=    0.0000000   0.0000000   0.0000000   0.0000000   0.0000000   0.0000000   0.0000000   0.0000000   0.0000000   0.0000000
 NMagM=    0.0000000   2.7928460   2.7928460   0.0000000   0.0000000   2.7928460   2.7928460   2.7928460   0.0000000   2.7928460
 AtZNuc=   6.0000000   1.0000000   1.0000000   6.0000000   6.0000000   1.0000000   1.0000000   1.0000000   6.0000000   1.0000000

  Atom        11          12          13          14          15          16          17          18          19          20
 IAtWgt=          12           1           1           1          12           1           1           1          12          12
 AtmWgt=  12.0000000   1.0078250   1.0078250   1.0078250  12.0000000   1.0078250   1.0078250   1.0078250  12.0000000  12.0000000
 NucSpn=           0           1           1           1           0           1           1           1           0           0
 AtZEff=  -0.0000000  -0.0000000  -0.0000000  -0.0000000  -0.0000000  -0.0000000  -0.0000000  -0.0000000  -0.0000000  -0.0000000
 NQMom=    0.0000000   0.0000000   0.0000000   0.0000000   0.0000000   0.0000000   0.0000000   0.0000000   0.0000000   0.0000000
 NMagM=    0.0000000   2.7928460   2.7928460   2.7928460   0.0000000   2.7928460   2.7928460   2.7928460   0.0000000   0.0000000
 AtZNuc=   6.0000000   1.0000000   1.0000000   1.0000000   6.0000000   1.0000000   1.0000000   1.0000000   6.0000000   6.0000000

  Atom        21          22          23          24          25          26          27          28
 IAtWgt=           1           1           1          12           1          12           1           1
 AtmWgt=   1.0078250   1.0078250   1.0078250  12.0000000   1.0078250  12.0000000   1.0078250   1.0078250
 NucSpn=           1           1           1           0           1           0           1           1
 AtZEff=  -0.0000000  -0.0000000  -0.0000000  -0.0000000  -0.0000000  -0.0000000  -0.0000000  -0.0000000
 NQMom=    0.0000000   0.0000000   0.0000000   0.0000000   0.0000000   0.0000000   0.0000000   0.0000000
 NMagM=    2.7928460   2.7928460   2.7928460   0.0000000   2.7928460   0.0000000   2.7928460   2.7928460
 AtZNuc=   1.0000000   1.0000000   1.0000000   6.0000000   1.0000000   6.0000000   1.0000000   1.0000000
 Leave Link  101 at Fri Sep 17 13:32:34 2021, MaxMem=   524288000 cpu:               0.3 elap:               0.7
 (Enter /opt/gaussian/g16_legacy/l103.exe)

 GradGradGradGradGradGradGradGradGradGradGradGradGradGradGradGradGradGrad
 Berny optimization.
 Initialization pass.
                           ----------------------------
                           !    Initial Parameters    !
                           ! (Angstroms and Degrees)  !
 --------------------------                            --------------------------
 ! Name  Definition              Value          Derivative Info.                !
 --------------------------------------------------------------------------------
 ! R1    R(1,2)                  1.0965         estimate D2E/DX2                !
 ! R2    R(1,3)                  1.0983         estimate D2E/DX2                !
 ! R3    R(1,4)                  1.5149         estimate D2E/DX2                !
 ! R4    R(1,26)                 1.5321         estimate D2E/DX2                !
 ! R5    R(4,5)                  1.5074         estimate D2E/DX2                !
 ! R6    R(4,9)                  1.3477         estimate D2E/DX2                !
 ! R7    R(5,6)                  1.0948         estimate D2E/DX2                !
 ! R8    R(5,7)                  1.0945         estimate D2E/DX2                !
 ! R9    R(5,8)                  1.0952         estimate D2E/DX2                !
 ! R10   R(9,10)                 1.0897         estimate D2E/DX2                !
 ! R11   R(9,11)                 1.496          estimate D2E/DX2                !
 ! R12   R(11,12)                1.0922         estimate D2E/DX2                !
 ! R13   R(11,13)                1.0942         estimate D2E/DX2                !
 ! R14   R(11,14)                1.0948         estimate D2E/DX2                !
 ! R15   R(15,16)                1.0954         estimate D2E/DX2                !
 ! R16   R(15,17)                1.0947         estimate D2E/DX2                !
 ! R17   R(15,18)                1.0924         estimate D2E/DX2                !
 ! R18   R(15,19)                1.5039         estimate D2E/DX2                !
 ! R19   R(19,20)                1.5066         estimate D2E/DX2                !
 ! R20   R(19,24)                1.3474         estimate D2E/DX2                !
 ! R21   R(20,21)                1.095          estimate D2E/DX2                !
 ! R22   R(20,22)                1.095          estimate D2E/DX2                !
 ! R23   R(20,23)                1.095          estimate D2E/DX2                !
 ! R24   R(24,25)                1.0902         estimate D2E/DX2                !
 ! R25   R(24,26)                1.5055         estimate D2E/DX2                !
 ! R26   R(26,27)                1.0977         estimate D2E/DX2                !
 ! R27   R(26,28)                1.0945         estimate D2E/DX2                !
 ! A1    A(2,1,3)              104.8579         estimate D2E/DX2                !
 ! A2    A(2,1,4)              110.6529         estimate D2E/DX2                !
 ! A3    A(2,1,26)             109.9907         estimate D2E/DX2                !
 ! A4    A(3,1,4)              108.9406         estimate D2E/DX2                !
 ! A5    A(3,1,26)             109.9012         estimate D2E/DX2                !
 ! A6    A(4,1,26)             112.2326         estimate D2E/DX2                !
 ! A7    A(1,4,5)              114.9943         estimate D2E/DX2                !
 ! A8    A(1,4,9)              124.4552         estimate D2E/DX2                !
 ! A9    A(5,4,9)              120.5387         estimate D2E/DX2                !
 ! A10   A(4,5,6)              110.2822         estimate D2E/DX2                !
 ! A11   A(4,5,7)              110.4989         estimate D2E/DX2                !
 ! A12   A(4,5,8)              112.2526         estimate D2E/DX2                !
 ! A13   A(6,5,7)              108.5593         estimate D2E/DX2                !
 ! A14   A(6,5,8)              107.5738         estimate D2E/DX2                !
 ! A15   A(7,5,8)              107.5379         estimate D2E/DX2                !
 ! A16   A(4,9,10)             118.5566         estimate D2E/DX2                !
 ! A17   A(4,9,11)             127.5362         estimate D2E/DX2                !
 ! A18   A(10,9,11)            113.9            estimate D2E/DX2                !
 ! A19   A(9,11,12)            113.4918         estimate D2E/DX2                !
 ! A20   A(9,11,13)            109.8518         estimate D2E/DX2                !
 ! A21   A(9,11,14)            109.4363         estimate D2E/DX2                !
 ! A22   A(12,11,13)           108.4618         estimate D2E/DX2                !
 ! A23   A(12,11,14)           107.313          estimate D2E/DX2                !
 ! A24   A(13,11,14)           108.1257         estimate D2E/DX2                !
 ! A25   A(16,15,17)           108.3349         estimate D2E/DX2                !
 ! A26   A(16,15,18)           106.7757         estimate D2E/DX2                !
 ! A27   A(16,15,19)           110.0578         estimate D2E/DX2                !
 ! A28   A(17,15,18)           107.989          estimate D2E/DX2                !
 ! A29   A(17,15,19)           110.1035         estimate D2E/DX2                !
 ! A30   A(18,15,19)           113.4038         estimate D2E/DX2                !
 ! A31   A(15,19,20)           114.2885         estimate D2E/DX2                !
 ! A32   A(15,19,24)           125.0684         estimate D2E/DX2                !
 ! A33   A(20,19,24)           120.6405         estimate D2E/DX2                !
 ! A34   A(19,20,21)           112.3323         estimate D2E/DX2                !
 ! A35   A(19,20,22)           110.2901         estimate D2E/DX2                !
 ! A36   A(19,20,23)           110.2041         estimate D2E/DX2                !
 ! A37   A(21,20,22)           107.6683         estimate D2E/DX2                !
 ! A38   A(21,20,23)           107.6507         estimate D2E/DX2                !
 ! A39   A(22,20,23)           108.569          estimate D2E/DX2                !
 ! A40   A(19,24,25)           118.452          estimate D2E/DX2                !
 ! A41   A(19,24,26)           127.6451         estimate D2E/DX2                !
 ! A42   A(25,24,26)           113.8951         estimate D2E/DX2                !
 ! A43   A(1,26,24)            111.4058         estimate D2E/DX2                !
 ! A44   A(1,26,27)            109.7951         estimate D2E/DX2                !
 ! A45   A(1,26,28)            110.6312         estimate D2E/DX2                !
 ! A46   A(24,26,27)           107.8395         estimate D2E/DX2                !
 ! A47   A(24,26,28)           111.4287         estimate D2E/DX2                !
 ! A48   A(27,26,28)           105.5266         estimate D2E/DX2                !
 ! D1    D(2,1,4,5)           -151.728          estimate D2E/DX2                !
 ! D2    D(2,1,4,9)             27.0237         estimate D2E/DX2                !
 ! D3    D(3,1,4,5)            -36.9521         estimate D2E/DX2                !
 ! D4    D(3,1,4,9)            141.7995         estimate D2E/DX2                !
 ! D5    D(26,1,4,5)            84.9899         estimate D2E/DX2                !
 ! D6    D(26,1,4,9)           -96.2585         estimate D2E/DX2                !
 ! D7    D(2,1,26,24)           55.3266         estimate D2E/DX2                !
 ! D8    D(2,1,26,27)          -64.0672         estimate D2E/DX2                !
 ! D9    D(2,1,26,28)          179.8606         estimate D2E/DX2                !
 ! D10   D(3,1,26,24)          -59.6273         estimate D2E/DX2                !
 ! D11   D(3,1,26,27)         -179.0212         estimate D2E/DX2                !
 ! D12   D(3,1,26,28)           64.9066         estimate D2E/DX2                !
 ! D13   D(4,1,26,24)          178.9798         estimate D2E/DX2                !
 ! D14   D(4,1,26,27)           59.5859         estimate D2E/DX2                !
 ! D15   D(4,1,26,28)          -56.4863         estimate D2E/DX2                !
 ! D16   D(1,4,5,6)             59.4758         estimate D2E/DX2                !
 ! D17   D(1,4,5,7)            -60.5526         estimate D2E/DX2                !
 ! D18   D(1,4,5,8)            179.41           estimate D2E/DX2                !
 ! D19   D(9,4,5,6)           -119.3291         estimate D2E/DX2                !
 ! D20   D(9,4,5,7)            120.6426         estimate D2E/DX2                !
 ! D21   D(9,4,5,8)              0.6051         estimate D2E/DX2                !
 ! D22   D(1,4,9,10)          -178.5592         estimate D2E/DX2                !
 ! D23   D(1,4,9,11)             2.4763         estimate D2E/DX2                !
 ! D24   D(5,4,9,10)             0.1271         estimate D2E/DX2                !
 ! D25   D(5,4,9,11)          -178.8374         estimate D2E/DX2                !
 ! D26   D(4,9,11,12)            8.0376         estimate D2E/DX2                !
 ! D27   D(4,9,11,13)         -113.5654         estimate D2E/DX2                !
 ! D28   D(4,9,11,14)          127.8701         estimate D2E/DX2                !
 ! D29   D(10,9,11,12)        -170.9675         estimate D2E/DX2                !
 ! D30   D(10,9,11,13)          67.4295         estimate D2E/DX2                !
 ! D31   D(10,9,11,14)         -51.135          estimate D2E/DX2                !
 ! D32   D(16,15,19,20)         52.5894         estimate D2E/DX2                !
 ! D33   D(16,15,19,24)       -126.8226         estimate D2E/DX2                !
 ! D34   D(17,15,19,20)        -66.7675         estimate D2E/DX2                !
 ! D35   D(17,15,19,24)        113.8205         estimate D2E/DX2                !
 ! D36   D(18,15,19,20)        172.1165         estimate D2E/DX2                !
 ! D37   D(18,15,19,24)         -7.2956         estimate D2E/DX2                !
 ! D38   D(15,19,20,21)        179.6017         estimate D2E/DX2                !
 ! D39   D(15,19,20,22)        -60.286          estimate D2E/DX2                !
 ! D40   D(15,19,20,23)         59.5708         estimate D2E/DX2                !
 ! D41   D(24,19,20,21)         -0.9577         estimate D2E/DX2                !
 ! D42   D(24,19,20,22)        119.1547         estimate D2E/DX2                !
 ! D43   D(24,19,20,23)       -120.9885         estimate D2E/DX2                !
 ! D44   D(15,19,24,25)        178.8549         estimate D2E/DX2                !
 ! D45   D(15,19,24,26)         -2.2358         estimate D2E/DX2                !
 ! D46   D(20,19,24,25)         -0.5222         estimate D2E/DX2                !
 ! D47   D(20,19,24,26)        178.3871         estimate D2E/DX2                !
 ! D48   D(19,24,26,1)         103.66           estimate D2E/DX2                !
 ! D49   D(19,24,26,27)       -135.7905         estimate D2E/DX2                !
 ! D50   D(19,24,26,28)        -20.4246         estimate D2E/DX2                !
 ! D51   D(25,24,26,1)         -77.3888         estimate D2E/DX2                !
 ! D52   D(25,24,26,27)         43.1607         estimate D2E/DX2                !
 ! D53   D(25,24,26,28)        158.5266         estimate D2E/DX2                !
 --------------------------------------------------------------------------------
 Trust Radius=3.00D-01 FncErr=1.00D-07 GrdErr=1.00D-07 EigMax=2.50D+02 EigMin=1.00D-04
 Number of steps in this run=    138 maximum allowed number of steps=    168.
 GradGradGradGradGradGradGradGradGradGradGradGradGradGradGradGradGradGrad

 Leave Link  103 at Fri Sep 17 13:32:34 2021, MaxMem=   524288000 cpu:               0.1 elap:               0.5
 (Enter /opt/gaussian/g16_legacy/l202.exe)
                          Input orientation:                          
 ---------------------------------------------------------------------
 Center     Atomic      Atomic             Coordinates (Angstroms)
 Number     Number       Type             X           Y           Z
 ---------------------------------------------------------------------
      1          6           0       -0.752700    0.156500    0.572600
      2          1           0       -0.904400    1.202800    0.863300
      3          1           0       -0.207200   -0.293100    1.413200
      4          6           0       -2.082200   -0.552100    0.413900
      5          6           0       -2.048600   -2.035900    0.677700
      6          1           0       -1.710200   -2.232000    1.700300
      7          1           0       -1.364600   -2.533300   -0.017000
      8          1           0       -3.033500   -2.500400    0.560500
      9          6           0       -3.238200    0.059600    0.088600
     10          1           0       -4.145000   -0.541200    0.023100
     11          6           0       -3.446100    1.507100   -0.226800
     12          1           0       -2.515300    2.072000   -0.312800
     13          1           0       -4.062900    1.971500    0.548600
     14          1           0       -3.972900    1.599800   -1.182000
     15          6           0        2.913000   -1.186700   -0.182500
     16          1           0        3.475300   -1.370100    0.739500
     17          1           0        3.513900   -1.537100   -1.027800
     18          1           0        2.012400   -1.802800   -0.130400
     19          6           0        2.624400    0.282100   -0.327100
     20          6           0        3.838800    1.166400   -0.213300
     21          1           0        3.593500    2.227200   -0.330200
     22          1           0        4.309800    1.040300    0.767100
     23          1           0        4.569100    0.907300   -0.986900
     24          6           0        1.403500    0.814900   -0.529600
     25          1           0        1.315200    1.899200   -0.600200
     26          6           0        0.098100    0.084400   -0.699500
     27          1           0       -0.441500    0.549800   -1.534500
     28          1           0        0.258200   -0.956400   -0.997900
 ---------------------------------------------------------------------
                    Distance matrix (angstroms):
                    1          2          3          4          5
     1  C    0.000000
     2  H    1.096478   0.000000
     3  H    1.098325   1.739596   0.000000
     4  C    1.514883   2.160752   2.140399   0.000000
     5  C    2.548925   3.439886   2.639899   1.507442   0.000000
     6  H    2.809528   3.625980   2.469973   2.148319   1.094843
     7  H    2.820829   3.865896   2.898886   2.150762   1.094473
     8  H    3.501616   4.282341   3.686088   2.173094   1.095228
     9  C    2.534039   2.711769   3.326548   1.347714   2.480586
    10  H    3.506627   3.774780   4.183324   2.099521   2.656600
    11  C    3.117301   2.782293   4.052258   2.551671   3.914585
    12  H    2.749515   2.175711   3.728284   2.757094   4.251322
    13  H    3.775212   3.265893   4.554379   3.210899   4.487018
    14  H    3.940993   3.708983   4.949609   3.279073   4.514391
    15  C    3.976395   4.623413   3.616687   5.070546   5.106717
    16  H    4.498260   5.081035   3.895460   5.626806   5.564223
    17  H    4.861423   5.532150   4.620888   5.862172   5.839430
    18  H    3.461047   4.304508   3.096533   4.315815   4.147178
    19  C    3.497147   3.836296   3.373049   4.837050   5.312220
    20  C    4.766488   4.863984   4.598452   6.197166   6.760923
    21  H    4.898194   4.764970   4.882282   6.363314   7.143051
    22  H    5.142746   5.217618   4.753808   6.596829   7.064011
    23  H    5.596186   5.785306   5.478547   6.952113   7.431505
    24  C    2.509489   2.723424   2.756173   3.861216   4.636985
    25  H    2.947656   2.748350   3.343301   4.310406   5.332278
    26  C    1.532089   2.167526   2.167767   2.529526   3.316726
    27  H    2.165964   2.527871   3.074787   2.775309   3.763302
    28  H    2.174152   3.078612   2.543613   2.762989   3.048652
                    6          7          8          9         10
     6  H    0.000000
     7  H    1.777453   0.000000
     8  H    1.767005   1.766300   0.000000
     9  C    3.191205   3.200728   2.611167   0.000000
    10  H    3.405885   3.420628   2.315749   1.089742   0.000000
    11  C    4.550597   4.549889   4.104892   1.495980   2.178634
    12  H    4.819250   4.756090   4.683805   2.175652   3.097994
    13  H    4.952880   5.281472   4.588866   2.132391   2.568375
    14  H    5.301901   5.024238   4.553067   2.127540   2.462877
    15  C    5.100154   4.487603   6.135040   6.282040   7.090438
    16  H    5.343727   5.034874   6.608638   6.894838   7.698654
    17  H    5.934361   5.080737   6.805813   7.027564   7.794547
    18  H    4.170543   3.456967   5.140535   5.575419   6.287191
    19  C    5.405535   4.892316   6.367258   5.881530   6.828268
    20  C    6.782506   6.387620   7.827688   7.169385   8.167793
    21  H    7.220570   6.880640   8.189058   7.179555   8.226375
    22  H    6.915143   6.751611   8.154955   7.641625   8.633558
    23  H    7.517038   6.927282   8.473865   7.926489   8.891220
    24  C    4.893994   4.374423   5.645042   4.743209   5.738496
    25  H    5.613569   5.212342   6.294037   4.959035   6.013139
    26  C    3.794035   3.075329   4.251554   3.428209   4.349416
    27  H    4.451061   3.558149   4.517877   3.270517   4.163209
    28  H    3.575197   2.466223   3.955735   3.799678   4.539053
                   11         12         13         14         15
    11  C    0.000000
    12  H    1.092198   0.000000
    13  H    1.094237   1.774028   0.000000
    14  H    1.094769   1.761556   1.772354   0.000000
    15  C    6.906278   6.332657   7.692328   7.495279   0.000000
    16  H    7.557631   6.988754   8.247860   8.245493   1.095400
    17  H    7.638740   7.063149   8.497247   8.118873   1.094711
    18  H    6.384352   5.962165   7.184403   6.964723   1.092417
    19  C    6.193679   5.442468   6.952762   6.781707   1.503853
    20  C    7.292875   6.419081   7.979069   7.883456   2.528860
    21  H    7.077090   6.110796   7.710910   7.640000   3.484194
    22  H    7.833245   6.986600   8.427157   8.527318   2.795053
    23  H    8.073472   7.211079   8.831857   8.572245   2.788290
    24  C    4.908100   4.121201   5.690498   5.472419   2.530903
    25  H    4.791988   3.845151   5.499903   5.328427   3.500031
    26  C    3.848230   3.306048   4.736330   4.370616   3.131557
    27  H    3.413814   2.847857   4.413057   3.701019   4.011983
    28  H    4.515005   4.163276   5.443911   4.946742   2.786733
                   16         17         18         19         20
    16  H    0.000000
    17  H    1.775592   0.000000
    18  H    1.756141   1.769301   0.000000
    19  C    2.142763   2.142820   2.181752   0.000000
    20  C    2.733824   2.842162   3.486941   1.506554   0.000000
    21  H    3.754836   3.829221   4.333670   2.173149   1.095050
    22  H    2.550918   3.240079   3.763877   2.147723   1.094955
    23  H    3.059968   2.662745   3.822950   2.146641   1.094956
    24  C    3.267598   3.199046   2.717071   1.347397   2.480783
    25  H    4.141153   4.101863   3.796262   2.098476   2.656171
    26  C    3.948642   3.795357   2.747716   2.561242   3.924277
    27  H    4.919188   4.500787   3.678022   3.305937   4.521806
    28  H    3.679598   3.307218   2.132174   2.753681   4.235867
                   21         22         23         24         25
    21  H    0.000000
    22  H    1.768017   0.000000
    23  H    1.767820   1.778044   0.000000
    24  C    2.613513   3.190426   3.199794   0.000000
    25  H    2.317571   3.402183   3.423634   1.090178   0.000000
    26  C    4.116527   4.561039   4.555173   1.505512   2.187394
    27  H    4.532685   5.302151   5.053097   2.117576   2.404120
    28  H    4.658901   4.849484   4.696526   2.160676   3.070809
                   26         27         28
    26  C    0.000000
    27  H    1.097721   0.000000
    28  H    1.094504   1.745325   0.000000
 Stoichiometry    C10H18
 Framework group  C1[X(C10H18)]
 Deg. of freedom    78
 Full point group                 C1      NOp   1
 Largest Abelian subgroup         C1      NOp   1
 Largest concise Abelian subgroup C1      NOp   1
                         Standard orientation:                         
 ---------------------------------------------------------------------
 Center     Atomic      Atomic             Coordinates (Angstroms)
 Number     Number       Type             X           Y           Z
 ---------------------------------------------------------------------
      1          6           0        0.745827   -0.045497    0.580384
      2          1           0        0.871533   -1.012056    1.082603
      3          1           0        0.286532    0.606594    1.335463
      4          6           0        2.090230    0.530353    0.185609
      5          6           0        2.144010    2.035406    0.120006
      6          1           0        1.893305    2.466963    1.094473
      7          1           0        1.432590    2.412394   -0.621366
      8          1           0        3.137239    2.403170   -0.158869
      9          6           0        3.189339   -0.206011   -0.071416
     10          1           0        4.114868    0.310465   -0.324763
     11          6           0        3.306914   -1.697359   -0.075170
     12          1           0        2.347626   -2.209960    0.024351
     13          1           0        3.959007   -2.020750    0.741866
     14          1           0        3.755077   -2.025076   -1.018711
     15          6           0       -2.901884    1.323952   -0.213676
     16          1           0       -3.383813    1.735093    0.679973
     17          1           0       -3.548604    1.520230   -1.074850
     18          1           0       -1.972926    1.881003   -0.355469
     19          6           0       -2.691948   -0.156333   -0.051641
     20          6           0       -3.933067   -0.920083    0.330475
     21          1           0       -3.745669   -1.994097    0.432998
     22          1           0       -4.322225   -0.557780    1.287669
     23          1           0       -4.707387   -0.789525   -0.432618
     24          6           0       -1.515312   -0.793329   -0.210521
     25          1           0       -1.481857   -1.870762   -0.047711
     26          6           0       -0.194771   -0.197078   -0.619447
     27          1           0        0.258356   -0.863007   -1.365239
     28          1           0       -0.329677    0.762975   -1.127421
 ---------------------------------------------------------------------
 Rotational constants (GHZ):           2.4778067           0.5324378           0.4581634
 Leave Link  202 at Fri Sep 17 13:32:35 2021, MaxMem=   524288000 cpu:               0.0 elap:               0.1
 (Enter /opt/gaussian/g16_legacy/l301.exe)
 Standard basis: 6-31G(d,p) (6D, 7F)
 Ernie: Thresh=  0.10000D-02 Tol=  0.10000D-05 Strict=F.
 There are   240 symmetry adapted cartesian basis functions of A   symmetry.
 There are   240 symmetry adapted basis functions of A   symmetry.
   240 basis functions,   406 primitive gaussians,   240 cartesian basis functions
    39 alpha electrons       39 beta electrons
       nuclear repulsion energy       513.2772456211 Hartrees.
 IExCor=    0 DFT=F Ex=HF Corr=None ExCW=0 ScaHFX=  1.000000
 ScaDFX=  1.000000  1.000000  1.000000  1.000000 ScalE2=  1.000000  1.000000
 IRadAn=      5 IRanWt=     -1 IRanGd=            0 ICorTp=0 IEmpDi=  4
 NAtoms=   28 NActive=   28 NUniq=   28 SFac= 1.00D+00 NAtFMM=   60 NAOKFM=F Big=F
 Integral buffers will be    131072 words long.
 Raffenetti 1 integral format.
 Two-electron integral symmetry is turned on.
 Leave Link  301 at Fri Sep 17 13:32:36 2021, MaxMem=   524288000 cpu:               0.1 elap:               0.8
 (Enter /opt/gaussian/g16_legacy/l302.exe)
 NPDir=0 NMtPBC=     1 NCelOv=     1 NCel=       1 NClECP=     1 NCelD=      1
         NCelK=      1 NCelE2=     1 NClLst=     1 CellRange=     0.0.
 One-electron integrals computed using PRISM.
 One-electron integral symmetry used in STVInt
 NBasis=   240 RedAO= T EigKep=  2.09D-03  NBF=   240
 NBsUse=   240 1.00D-06 EigRej= -1.00D+00 NBFU=   240
 Leave Link  302 at Fri Sep 17 13:32:36 2021, MaxMem=   524288000 cpu:               0.3 elap:               0.7
 (Enter /opt/gaussian/g16_legacy/l303.exe)
 DipDrv:  MaxL=1.
 Leave Link  303 at Fri Sep 17 13:32:37 2021, MaxMem=   524288000 cpu:               0.1 elap:               0.3
 (Enter /opt/gaussian/g16_legacy/l401.exe)
 ExpMin= 1.61D-01 ExpMax= 3.05D+03 ExpMxC= 4.57D+02 IAcc=3 IRadAn=         5 AccDes= 0.00D+00
 Harris functional with IExCor=  205 and IRadAn=       5 diagonalized for initial guess.
 HarFok:  IExCor=  205 AccDes= 0.00D+00 IRadAn=         5 IDoV= 1 UseB2=F ITyADJ=14
 ICtDFT=  3500011 ScaDFX=  1.000000  1.000000  1.000000  1.000000
 FoFCou: FMM=F IPFlag=           0 FMFlag=      100000 FMFlg1=           0
         NFxFlg=           0 DoJE=T BraDBF=F KetDBF=T FulRan=T
         wScrn=  0.000000 ICntrl=       500 IOpCl=  0 I1Cent=   200000004 NGrid=           0
         NMat0=    1 NMatS0=      1 NMatT0=    0 NMatD0=    1 NMtDS0=    0 NMtDT0=    0
 Petite list used in FoFCou.
 Harris En= -390.110078350706    
 JPrj=0 DoOrth=F DoCkMO=F.
 Leave Link  401 at Fri Sep 17 13:32:49 2021, MaxMem=   524288000 cpu:              11.0 elap:              12.2
 (Enter /opt/gaussian/g16_legacy/l502.exe)
 Keep R1 ints in memory in canonical form, NReq=425198025.
 FoFCou: FMM=F IPFlag=           0 FMFlag=           0 FMFlg1=           0
         NFxFlg=           0 DoJE=F BraDBF=F KetDBF=F FulRan=T
         wScrn=  0.000000 ICntrl=       600 IOpCl=  0 I1Cent=           0 NGrid=           0
         NMat0=    1 NMatS0=  28920 NMatT0=    0 NMatD0=    1 NMtDS0=    0 NMtDT0=    0
 Symmetry not used in FoFCou.
 Two-electron integral symmetry not used.
 Closed shell SCF:
 Using DIIS extrapolation, IDIIS=  1040.
 NGot=   524288000 LenX=   105970886 LenY=   105912845
 Requested convergence on RMS density matrix=1.00D-08 within 128 cycles.
 Requested convergence on MAX density matrix=1.00D-06.
 Requested convergence on             energy=1.00D-06.
 No special actions if energy rises.

 Cycle   1  Pass 1  IDiag  1:
 E= -388.532790017402    
 DIIS: error= 5.01D-02 at cycle   1 NSaved=   1.
 NSaved= 1 IEnMin= 1 EnMin= -388.532790017402     IErMin= 1 ErrMin= 5.01D-02
 ErrMax= 5.01D-02  0.00D+00 EMaxC= 1.00D-01 BMatC= 8.07D-01 BMatP= 8.07D-01
 IDIUse=3 WtCom= 4.99D-01 WtEn= 5.01D-01
 Coeff-Com:  0.100D+01
 Coeff-En:   0.100D+01
 Coeff:      0.100D+01
 Gap=     0.508 Goal=   None    Shift=    0.000
 GapD=    0.508 DampG=2.000 DampE=0.500 DampFc=1.0000 IDamp=-1.
 RMSDP=3.99D-03 MaxDP=1.15D-01              OVMax= 1.39D-01

 Cycle   2  Pass 1  IDiag  1:
 E= -389.074250581636     Delta-E=       -0.541460564234 Rises=F Damp=F
 DIIS: error= 1.46D-02 at cycle   2 NSaved=   2.
 NSaved= 2 IEnMin= 2 EnMin= -389.074250581636     IErMin= 2 ErrMin= 1.46D-02
 ErrMax= 1.46D-02  0.00D+00 EMaxC= 1.00D-01 BMatC= 8.63D-02 BMatP= 8.07D-01
 IDIUse=3 WtCom= 8.54D-01 WtEn= 1.46D-01
 Coeff-Com:  0.183D+00 0.817D+00
 Coeff-En:   0.000D+00 0.100D+01
 Coeff:      0.156D+00 0.844D+00
 Gap=     0.552 Goal=   None    Shift=    0.000
 RMSDP=1.62D-03 MaxDP=3.04D-02 DE=-5.41D-01 OVMax= 4.55D-02

 Cycle   3  Pass 1  IDiag  1:
 E= -389.151662791077     Delta-E=       -0.077412209441 Rises=F Damp=F
 DIIS: error= 2.67D-03 at cycle   3 NSaved=   3.
 NSaved= 3 IEnMin= 3 EnMin= -389.151662791077     IErMin= 3 ErrMin= 2.67D-03
 ErrMax= 2.67D-03  0.00D+00 EMaxC= 1.00D-01 BMatC= 3.01D-03 BMatP= 8.63D-02
 IDIUse=3 WtCom= 9.73D-01 WtEn= 2.67D-02
 Coeff-Com: -0.245D-01 0.102D+00 0.922D+00
 Coeff-En:   0.000D+00 0.000D+00 0.100D+01
 Coeff:     -0.239D-01 0.997D-01 0.924D+00
 Gap=     0.499 Goal=   None    Shift=    0.000
 RMSDP=2.54D-04 MaxDP=6.75D-03 DE=-7.74D-02 OVMax= 9.70D-03

 Cycle   4  Pass 1  IDiag  1:
 E= -389.155155616507     Delta-E=       -0.003492825430 Rises=F Damp=F
 DIIS: error= 4.95D-04 at cycle   4 NSaved=   4.
 NSaved= 4 IEnMin= 4 EnMin= -389.155155616507     IErMin= 4 ErrMin= 4.95D-04
 ErrMax= 4.95D-04  0.00D+00 EMaxC= 1.00D-01 BMatC= 9.58D-05 BMatP= 3.01D-03
 IDIUse=3 WtCom= 9.95D-01 WtEn= 4.95D-03
 Coeff-Com: -0.442D-02-0.839D-03 0.102D+00 0.903D+00
 Coeff-En:   0.000D+00 0.000D+00 0.000D+00 0.100D+01
 Coeff:     -0.440D-02-0.834D-03 0.102D+00 0.903D+00
 Gap=     0.500 Goal=   None    Shift=    0.000
 RMSDP=7.33D-05 MaxDP=1.75D-03 DE=-3.49D-03 OVMax= 3.51D-03

 Cycle   5  Pass 1  IDiag  1:
 E= -389.155280839331     Delta-E=       -0.000125222823 Rises=F Damp=F
 DIIS: error= 1.73D-04 at cycle   5 NSaved=   5.
 NSaved= 5 IEnMin= 5 EnMin= -389.155280839331     IErMin= 5 ErrMin= 1.73D-04
 ErrMax= 1.73D-04  0.00D+00 EMaxC= 1.00D-01 BMatC= 1.79D-05 BMatP= 9.58D-05
 IDIUse=3 WtCom= 9.98D-01 WtEn= 1.73D-03
 Coeff-Com:  0.248D-02-0.153D-01-0.106D+00 0.196D+00 0.922D+00
 Coeff-En:   0.000D+00 0.000D+00 0.000D+00 0.000D+00 0.100D+01
 Coeff:      0.247D-02-0.153D-01-0.105D+00 0.196D+00 0.923D+00
 Gap=     0.500 Goal=   None    Shift=    0.000
 RMSDP=3.09D-05 MaxDP=7.46D-04 DE=-1.25D-04 OVMax= 1.02D-03

 Cycle   6  Pass 1  IDiag  1:
 E= -389.155304455716     Delta-E=       -0.000023616386 Rises=F Damp=F
 DIIS: error= 3.73D-05 at cycle   6 NSaved=   6.
 NSaved= 6 IEnMin= 6 EnMin= -389.155304455716     IErMin= 6 ErrMin= 3.73D-05
 ErrMax= 3.73D-05  0.00D+00 EMaxC= 1.00D-01 BMatC= 5.50D-07 BMatP= 1.79D-05
 IDIUse=1 WtCom= 1.00D+00 WtEn= 0.00D+00
 Coeff-Com:  0.724D-03-0.330D-02-0.263D-01-0.273D-02 0.163D+00 0.868D+00
 Coeff:      0.724D-03-0.330D-02-0.263D-01-0.273D-02 0.163D+00 0.868D+00
 Gap=     0.500 Goal=   None    Shift=    0.000
 RMSDP=5.42D-06 MaxDP=1.67D-04 DE=-2.36D-05 OVMax= 3.13D-04

 Cycle   7  Pass 1  IDiag  1:
 E= -389.155305309149     Delta-E=       -0.000000853433 Rises=F Damp=F
 DIIS: error= 9.13D-06 at cycle   7 NSaved=   7.
 NSaved= 7 IEnMin= 7 EnMin= -389.155305309149     IErMin= 7 ErrMin= 9.13D-06
 ErrMax= 9.13D-06  0.00D+00 EMaxC= 1.00D-01 BMatC= 4.91D-08 BMatP= 5.50D-07
 IDIUse=1 WtCom= 1.00D+00 WtEn= 0.00D+00
 Coeff-Com: -0.555D-04 0.478D-03 0.325D-02-0.106D-01-0.462D-01 0.126D+00
 Coeff-Com:  0.927D+00
 Coeff:     -0.555D-04 0.478D-03 0.325D-02-0.106D-01-0.462D-01 0.126D+00
 Coeff:      0.927D+00
 Gap=     0.500 Goal=   None    Shift=    0.000
 RMSDP=1.70D-06 MaxDP=4.71D-05 DE=-8.53D-07 OVMax= 8.68D-05

 Cycle   8  Pass 1  IDiag  1:
 E= -389.155305394292     Delta-E=       -0.000000085143 Rises=F Damp=F
 DIIS: error= 2.98D-06 at cycle   8 NSaved=   8.
 NSaved= 8 IEnMin= 8 EnMin= -389.155305394292     IErMin= 8 ErrMin= 2.98D-06
 ErrMax= 2.98D-06  0.00D+00 EMaxC= 1.00D-01 BMatC= 4.91D-09 BMatP= 4.91D-08
 IDIUse=1 WtCom= 1.00D+00 WtEn= 0.00D+00
 Coeff-Com: -0.553D-04 0.226D-03 0.195D-02 0.331D-02-0.143D-01-0.849D-01
 Coeff-Com: -0.129D+00 0.122D+01
 Coeff:     -0.553D-04 0.226D-03 0.195D-02 0.331D-02-0.143D-01-0.849D-01
 Coeff:     -0.129D+00 0.122D+01
 Gap=     0.500 Goal=   None    Shift=    0.000
 RMSDP=7.76D-07 MaxDP=2.58D-05 DE=-8.51D-08 OVMax= 5.60D-05

 Cycle   9  Pass 1  IDiag  1:
 E= -389.155305409598     Delta-E=       -0.000000015305 Rises=F Damp=F
 DIIS: error= 1.35D-06 at cycle   9 NSaved=   9.
 NSaved= 9 IEnMin= 9 EnMin= -389.155305409598     IErMin= 9 ErrMin= 1.35D-06
 ErrMax= 1.35D-06  0.00D+00 EMaxC= 1.00D-01 BMatC= 6.52D-10 BMatP= 4.91D-09
 IDIUse=1 WtCom= 1.00D+00 WtEn= 0.00D+00
 Coeff-Com:  0.122D-04-0.777D-04-0.581D-03 0.123D-02 0.420D-02 0.525D-02
 Coeff-Com: -0.723D-01-0.197D+00 0.126D+01
 Coeff:      0.122D-04-0.777D-04-0.581D-03 0.123D-02 0.420D-02 0.525D-02
 Coeff:     -0.723D-01-0.197D+00 0.126D+01
 Gap=     0.500 Goal=   None    Shift=    0.000
 RMSDP=2.99D-07 MaxDP=1.28D-05 DE=-1.53D-08 OVMax= 2.62D-05

 Cycle  10  Pass 1  IDiag  1:
 E= -389.155305411801     Delta-E=       -0.000000002203 Rises=F Damp=F
 DIIS: error= 4.11D-07 at cycle  10 NSaved=  10.
 NSaved=10 IEnMin=10 EnMin= -389.155305411801     IErMin=10 ErrMin= 4.11D-07
 ErrMax= 4.11D-07  0.00D+00 EMaxC= 1.00D-01 BMatC= 8.48D-11 BMatP= 6.52D-10
 IDIUse=1 WtCom= 1.00D+00 WtEn= 0.00D+00
 Coeff-Com:  0.802D-05-0.367D-04-0.304D-03-0.201D-03 0.163D-02 0.134D-01
 Coeff-Com:  0.123D-01-0.192D+00 0.975D-01 0.107D+01
 Coeff:      0.802D-05-0.367D-04-0.304D-03-0.201D-03 0.163D-02 0.134D-01
 Coeff:      0.123D-01-0.192D+00 0.975D-01 0.107D+01
 Gap=     0.500 Goal=   None    Shift=    0.000
 RMSDP=1.08D-07 MaxDP=3.32D-06 DE=-2.20D-09 OVMax= 8.53D-06

 Cycle  11  Pass 1  IDiag  1:
 E= -389.155305412048     Delta-E=       -0.000000000247 Rises=F Damp=F
 DIIS: error= 1.55D-07 at cycle  11 NSaved=  11.
 NSaved=11 IEnMin=11 EnMin= -389.155305412048     IErMin=11 ErrMin= 1.55D-07
 ErrMax= 1.55D-07  0.00D+00 EMaxC= 1.00D-01 BMatC= 5.87D-12 BMatP= 8.48D-11
 IDIUse=1 WtCom= 1.00D+00 WtEn= 0.00D+00
 Coeff-Com: -0.515D-06 0.461D-05 0.339D-04-0.107D-03-0.457D-03 0.974D-03
 Coeff-Com:  0.872D-02 0.508D-02-0.108D+00 0.919D-01 0.100D+01
 Coeff:     -0.515D-06 0.461D-05 0.339D-04-0.107D-03-0.457D-03 0.974D-03
 Coeff:      0.872D-02 0.508D-02-0.108D+00 0.919D-01 0.100D+01
 Gap=     0.500 Goal=   None    Shift=    0.000
 RMSDP=2.30D-08 MaxDP=1.01D-06 DE=-2.47D-10 OVMax= 2.02D-06

 Cycle  12  Pass 1  IDiag  1:
 E= -389.155305412059     Delta-E=       -0.000000000012 Rises=F Damp=F
 DIIS: error= 4.41D-08 at cycle  12 NSaved=  12.
 NSaved=12 IEnMin=12 EnMin= -389.155305412059     IErMin=12 ErrMin= 4.41D-08
 ErrMax= 4.41D-08  0.00D+00 EMaxC= 1.00D-01 BMatC= 9.43D-13 BMatP= 5.87D-12
 IDIUse=1 WtCom= 1.00D+00 WtEn= 0.00D+00
 Coeff-Com: -0.945D-06 0.495D-05 0.398D-04 0.178D-05-0.291D-03-0.124D-02
 Coeff-Com:  0.336D-03 0.206D-01-0.365D-01-0.106D+00 0.192D+00 0.931D+00
 Coeff:     -0.945D-06 0.495D-05 0.398D-04 0.178D-05-0.291D-03-0.124D-02
 Coeff:      0.336D-03 0.206D-01-0.365D-01-0.106D+00 0.192D+00 0.931D+00
 Gap=     0.500 Goal=   None    Shift=    0.000
 RMSDP=9.73D-09 MaxDP=2.59D-07 DE=-1.18D-11 OVMax= 6.36D-07

 SCF Done:  E(RHF) =  -389.155305412     A.U. after   12 cycles
            NFock= 12  Conv=0.97D-08     -V/T= 2.0014
 KE= 3.886248156546D+02 PE=-1.931189172931D+03 EE= 6.401318062436D+02
 Leave Link  502 at Fri Sep 17 13:33:29 2021, MaxMem=   524288000 cpu:              39.8 elap:              39.9
 (Enter /opt/gaussian/g16_legacy/l801.exe)
 ExpMin= 1.61D-01 ExpMax= 3.05D+03 ExpMxC= 4.57D+02 IAcc=3 IRadAn=         5 AccDes= 0.00D+00
 HarFok:  IExCor=  205 AccDes= 0.00D+00 IRadAn=         5 IDoV=-2 UseB2=F ITyADJ=14
 ICtDFT= 12500011 ScaDFX=  1.000000  1.000000  1.000000  1.000000
 Largest valence mixing into a core orbital is  1.97D-04
 Largest core mixing into a valence orbital is  3.52D-05
 Range of M.O.s used for correlation:    11   240
 NBasis=   240 NAE=    39 NBE=    39 NFC=    10 NFV=     0
 NROrb=    230 NOA=    29 NOB=    29 NVA=   201 NVB=   201
 Leave Link  801 at Fri Sep 17 13:33:31 2021, MaxMem=   524288000 cpu:               1.6 elap:               1.6
 (Enter /opt/gaussian/g16_legacy/l906.exe)
 Frozen-core derivative calculation, NFC=  10 NFV=   0.
 FulOut=F Deriv=T AODrv=T NAtomX=    28
   MMem=          89  MDisk=          29 MDiskD=          29
  W3Min=     2246400 MinDsk=     2795480 NBas6D=         240
 NBas2D=       29244    NTT=       28920    LW2=     2040000
    MDV=   523629461 MDiskM=       30186 NBas2p=       24099
 Fully direct method using O(ONN) memory.
 IMap=   1   2   3   4   5   6   7   8   9  10  11  12  13  14  15  16  17  18  19  20
 IMap=  21  22  23  24  25  26  27  28  29  30  31  32  33  34  35  36  37  38  39
 JobTyp=1 Pass  1:  I=  11 to  39 NPSUse=  1 ParTrn=F ParDer=F DoDerP=T.
 Spin components of T(2) and E(2):
     alpha-alpha T2 =       0.5711489682D-01 E2=     -0.1637336208D+00
     alpha-beta  T2 =       0.3617397430D+00 E2=     -0.1089189466D+01
     beta-beta   T2 =       0.5711489682D-01 E2=     -0.1637336208D+00
 The integrals were generated   1 times.
 ANorm=    0.1214894866D+01
 E2 =    -0.1416656707D+01 EUMP2 =    -0.39057196211944D+03
 Leave Link  906 at Fri Sep 17 13:38:26 2021, MaxMem=   524288000 cpu:             295.5 elap:             295.7
 (Enter /opt/gaussian/g16_legacy/l1002.exe)
 Minotr:  Closed shell wavefunction.
          Computing MP2/KS-MP2 derivatives.
          Using Z-Vector for PSCF gradient.
          Skipping F1 and S1 gradient terms here.
          IDoAtm=1111111111111111111111111111
          Frozen-core window.
          Direct CPHF calculation.
          Differentiating once with respect to electric field.
                with respect to dipole field.
          Differentiating once with respect to nuclear coordinates.
          Requested convergence is 1.0D-10 RMS, and 1.0D-09 maximum.
          NewPWx=F KeepS1=T KeepF1=T KeepIn=T MapXYZ=F SortEE=F KeepMc=T.
 Keep R1 ints in memory in canonical form, NReq=425201067.
 FoFCou: FMM=F IPFlag=           0 FMFlag=           0 FMFlg1=           0
         NFxFlg=           0 DoJE=F BraDBF=F KetDBF=F FulRan=T
         wScrn=  0.000000 ICntrl=       600 IOpCl=  0 I1Cent=           0 NGrid=           0
         NMat0=    1 NMatS0=  28920 NMatT0=    0 NMatD0=    1 NMtDS0=    0 NMtDT0=    0
 Symmetry not used in FoFCou.
 Two-electron integral symmetry not used.
          MDV=     524288000 using IRadAn=       5.
          Solving linear equations separately, MaxMat=       0.
          There are     1 degrees of freedom in the 1st order CPHF.  IDoFFX=0 NUNeed=     1.
 LinEq1:  Iter=  0 NonCon=     1 RMS=2.55D-03 Max=4.26D-02 NDo=     1
 AX will form     1 AO Fock derivatives at one time.
 LinEq1:  Iter=  1 NonCon=     1 RMS=6.89D-04 Max=1.12D-02 NDo=     1
 LinEq1:  Iter=  2 NonCon=     1 RMS=1.61D-04 Max=4.13D-03 NDo=     1
 LinEq1:  Iter=  3 NonCon=     1 RMS=4.42D-05 Max=5.11D-04 NDo=     1
 LinEq1:  Iter=  4 NonCon=     1 RMS=1.99D-05 Max=8.26D-04 NDo=     1
 LinEq1:  Iter=  5 NonCon=     1 RMS=4.81D-06 Max=8.79D-05 NDo=     1
 LinEq1:  Iter=  6 NonCon=     1 RMS=1.45D-06 Max=2.32D-05 NDo=     1
 LinEq1:  Iter=  7 NonCon=     1 RMS=4.00D-07 Max=4.11D-06 NDo=     1
 LinEq1:  Iter=  8 NonCon=     1 RMS=8.44D-08 Max=1.47D-06 NDo=     1
 LinEq1:  Iter=  9 NonCon=     1 RMS=2.21D-08 Max=5.47D-07 NDo=     1
 LinEq1:  Iter= 10 NonCon=     1 RMS=7.36D-09 Max=1.94D-07 NDo=     1
 LinEq1:  Iter= 11 NonCon=     1 RMS=2.34D-09 Max=7.25D-08 NDo=     1
 LinEq1:  Iter= 12 NonCon=     1 RMS=8.53D-10 Max=1.39D-08 NDo=     1
 LinEq1:  Iter= 13 NonCon=     1 RMS=2.39D-10 Max=3.47D-09 NDo=     1
 LinEq1:  Iter= 14 NonCon=     0 RMS=5.52D-11 Max=6.92D-10 NDo=     1
 Linear equations converged to 1.000D-10 1.000D-09 after    14 iterations.
 End of Minotr F.D. properties file   721 does not exist.
 End of Minotr F.D. properties file   722 does not exist.
 End of Minotr F.D. properties file   788 does not exist.
 Leave Link 1002 at Fri Sep 17 13:39:07 2021, MaxMem=   524288000 cpu:              40.1 elap:              40.1
 (Enter /opt/gaussian/g16_legacy/l601.exe)
 Copying SCF densities to generalized density rwf, IOpCl= 0 IROHF=0.

 **********************************************************************

            Population analysis using the SCF density.

 **********************************************************************

 Orbital symmetries:
       Occupied  (A) (A) (A) (A) (A) (A) (A) (A) (A) (A) (A) (A)
                 (A) (A) (A) (A) (A) (A) (A) (A) (A) (A) (A) (A)
                 (A) (A) (A) (A) (A) (A) (A) (A) (A) (A) (A) (A)
                 (A) (A) (A)
       Virtual   (A) (A) (A) (A) (A) (A) (A) (A) (A) (A) (A) (A)
                 (A) (A) (A) (A) (A) (A) (A) (A) (A) (A) (A) (A)
                 (A) (A) (A) (A) (A) (A) (A) (A) (A) (A) (A) (A)
                 (A) (A) (A) (A) (A) (A) (A) (A) (A) (A) (A) (A)
                 (A) (A) (A) (A) (A) (A) (A) (A) (A) (A) (A) (A)
                 (A) (A) (A) (A) (A) (A) (A) (A) (A) (A) (A) (A)
                 (A) (A) (A) (A) (A) (A) (A) (A) (A) (A) (A) (A)
                 (A) (A) (A) (A) (A) (A) (A) (A) (A) (A) (A) (A)
                 (A) (A) (A) (A) (A) (A) (A) (A) (A) (A) (A) (A)
                 (A) (A) (A) (A) (A) (A) (A) (A) (A) (A) (A) (A)
                 (A) (A) (A) (A) (A) (A) (A) (A) (A) (A) (A) (A)
                 (A) (A) (A) (A) (A) (A) (A) (A) (A) (A) (A) (A)
                 (A) (A) (A) (A) (A) (A) (A) (A) (A) (A) (A) (A)
                 (A) (A) (A) (A) (A) (A) (A) (A) (A) (A) (A) (A)
                 (A) (A) (A) (A) (A) (A) (A) (A) (A) (A) (A) (A)
                 (A) (A) (A) (A) (A) (A) (A) (A) (A) (A) (A) (A)
                 (A) (A) (A) (A) (A) (A) (A) (A) (A)
 The electronic state is 1-A.
 Alpha  occ. eigenvalues --  -11.23060 -11.22491 -11.21993 -11.21918 -11.21893
 Alpha  occ. eigenvalues --  -11.21650 -11.21538 -11.21499 -11.21457 -11.21435
 Alpha  occ. eigenvalues --   -1.10614  -1.08327  -1.01891  -0.98025  -0.93647
 Alpha  occ. eigenvalues --   -0.91774  -0.86740  -0.82690  -0.70609  -0.69412
 Alpha  occ. eigenvalues --   -0.64401  -0.61335  -0.60398  -0.59008  -0.58077
 Alpha  occ. eigenvalues --   -0.56879  -0.55470  -0.55040  -0.53554  -0.51977
 Alpha  occ. eigenvalues --   -0.51778  -0.51260  -0.50452  -0.49765  -0.47237
 Alpha  occ. eigenvalues --   -0.46644  -0.44232  -0.33255  -0.31613
 Alpha virt. eigenvalues --    0.18420   0.19609   0.22268   0.24509   0.24867
 Alpha virt. eigenvalues --    0.27280   0.28582   0.29022   0.30342   0.30571
 Alpha virt. eigenvalues --    0.31453   0.32296   0.32994   0.33605   0.33919
 Alpha virt. eigenvalues --    0.34862   0.36108   0.37176   0.38360   0.39994
 Alpha virt. eigenvalues --    0.40807   0.41937   0.42661   0.44321   0.45310
 Alpha virt. eigenvalues --    0.51884   0.54069   0.61044   0.62386   0.69420
 Alpha virt. eigenvalues --    0.71419   0.71710   0.74322   0.75990   0.76601
 Alpha virt. eigenvalues --    0.77889   0.78836   0.80148   0.80437   0.82525
 Alpha virt. eigenvalues --    0.82864   0.85806   0.89228   0.90312   0.92126
 Alpha virt. eigenvalues --    0.93066   0.94945   0.96558   0.97593   0.99408
 Alpha virt. eigenvalues --    0.99664   1.01110   1.02715   1.04773   1.06344
 Alpha virt. eigenvalues --    1.07247   1.08350   1.08465   1.10885   1.12202
 Alpha virt. eigenvalues --    1.13085   1.13497   1.14141   1.15110   1.15429
 Alpha virt. eigenvalues --    1.15972   1.16406   1.17992   1.18284   1.20092
 Alpha virt. eigenvalues --    1.20927   1.22029   1.22906   1.24888   1.26887
 Alpha virt. eigenvalues --    1.29778   1.39910   1.40851   1.44074   1.45168
 Alpha virt. eigenvalues --    1.46113   1.53927   1.55259   1.57487   1.59003
 Alpha virt. eigenvalues --    1.61321   1.62901   1.65441   1.68693   1.70717
 Alpha virt. eigenvalues --    1.74995   1.83306   1.90945   1.92633   1.95889
 Alpha virt. eigenvalues --    1.98116   2.01341   2.02511   2.04961   2.08417
 Alpha virt. eigenvalues --    2.09275   2.11236   2.11878   2.13547   2.13761
 Alpha virt. eigenvalues --    2.15745   2.17935   2.19183   2.23539   2.27678
 Alpha virt. eigenvalues --    2.27931   2.30154   2.32118   2.34932   2.35557
 Alpha virt. eigenvalues --    2.35640   2.35786   2.39418   2.39798   2.40227
 Alpha virt. eigenvalues --    2.41259   2.41848   2.42899   2.44989   2.45580
 Alpha virt. eigenvalues --    2.47183   2.49016   2.49667   2.49768   2.53206
 Alpha virt. eigenvalues --    2.56185   2.58407   2.60486   2.62613   2.64596
 Alpha virt. eigenvalues --    2.66046   2.67904   2.71569   2.72556   2.74076
 Alpha virt. eigenvalues --    2.76098   2.77696   2.81002   2.82553   2.84080
 Alpha virt. eigenvalues --    2.86960   2.90352   2.92351   2.93719   2.93886
 Alpha virt. eigenvalues --    2.97259   2.98946   3.00896   3.02346   3.04616
 Alpha virt. eigenvalues --    3.06567   3.07049   3.09533   3.11568   3.16240
 Alpha virt. eigenvalues --    3.17181   3.17508   3.19754   3.20512   3.20978
 Alpha virt. eigenvalues --    3.22298   3.25239   3.26477   3.27447   3.37025
 Alpha virt. eigenvalues --    3.39006   3.44383   3.45752   3.55489   3.57321
 Alpha virt. eigenvalues --    3.58499   3.60445   3.67993   3.73346   3.78358
 Alpha virt. eigenvalues --    3.78765   3.80293   3.81206   3.82245   3.82866
 Alpha virt. eigenvalues --    3.83548   3.85734   3.87952   3.89119   3.90868
 Alpha virt. eigenvalues --    3.96062   4.59175   4.62295   4.74494   4.82467
 Alpha virt. eigenvalues --    4.89199   4.92416   4.93233   5.07345   5.10306
 Alpha virt. eigenvalues --    5.16932
          Condensed to atoms (all electrons):
               1          2          3          4          5          6
     1  C    5.000732   0.414391   0.412395   0.339593  -0.058818  -0.003457
     2  H    0.414391   0.576709  -0.030321  -0.040662   0.003304  -0.000014
     3  H    0.412395  -0.030321   0.583780  -0.045108  -0.004631   0.002508
     4  C    0.339593  -0.040662  -0.045108   4.957263   0.350743  -0.043203
     5  C   -0.058818   0.003304  -0.004631   0.350743   4.895130   0.397617
     6  H   -0.003457  -0.000014   0.002508  -0.043203   0.397617   0.593319
     7  H   -0.000423  -0.000036  -0.000305  -0.046043   0.399668  -0.035171
     8  H    0.003653  -0.000107   0.000092  -0.041421   0.406586  -0.027587
     9  C   -0.043518  -0.002304   0.001834   0.696644  -0.045815  -0.000478
    10  H    0.003082   0.000055  -0.000112  -0.036453  -0.006439   0.000245
    11  C   -0.007010  -0.002042   0.000131  -0.050639   0.003398  -0.000113
    12  H   -0.002038  -0.001244   0.000010  -0.000448   0.000090  -0.000001
    13  H    0.000216   0.000157   0.000029  -0.001300  -0.000114   0.000021
    14  H    0.000233  -0.000035  -0.000010   0.000512  -0.000102  -0.000004
    15  C    0.000487  -0.000011   0.000129  -0.000018  -0.000017  -0.000002
    16  H    0.000071  -0.000000  -0.000066  -0.000002   0.000000   0.000000
    17  H   -0.000041   0.000000   0.000012   0.000001  -0.000000   0.000000
    18  H    0.000080  -0.000011   0.000148  -0.000063   0.000095   0.000005
    19  C   -0.002758   0.000602   0.000934  -0.000035   0.000007  -0.000001
    20  C   -0.000105  -0.000001  -0.000032   0.000001  -0.000000   0.000000
    21  H   -0.000002   0.000002  -0.000002   0.000000  -0.000000  -0.000000
    22  H    0.000021  -0.000001  -0.000005  -0.000000   0.000000  -0.000000
    23  H   -0.000004   0.000000   0.000001   0.000000  -0.000000  -0.000000
    24  C   -0.062590  -0.001372  -0.000486   0.006102  -0.000076   0.000000
    25  H   -0.000349   0.001131   0.000186  -0.000118  -0.000002   0.000000
    26  C    0.325389  -0.041392  -0.042901  -0.056885  -0.000803   0.000024
    27  H   -0.045281  -0.002680   0.004395  -0.001367   0.000304   0.000006
    28  H   -0.040031   0.004047  -0.002359  -0.002269  -0.000487   0.000076
               7          8          9         10         11         12
     1  C   -0.000423   0.003653  -0.043518   0.003082  -0.007010  -0.002038
     2  H   -0.000036  -0.000107  -0.002304   0.000055  -0.002042  -0.001244
     3  H   -0.000305   0.000092   0.001834  -0.000112   0.000131   0.000010
     4  C   -0.046043  -0.041421   0.696644  -0.036453  -0.050639  -0.000448
     5  C    0.399668   0.406586  -0.045815  -0.006439   0.003398   0.000090
     6  H   -0.035171  -0.027587  -0.000478   0.000245  -0.000113  -0.000001
     7  H    0.598039  -0.028120  -0.000964   0.000130  -0.000102   0.000001
     8  H   -0.028120   0.570246  -0.002762   0.002177   0.000140   0.000004
     9  C   -0.000964  -0.002762   4.940021   0.404562   0.338343  -0.041988
    10  H    0.000130   0.002177   0.404562   0.559878  -0.043626   0.003343
    11  C   -0.000102   0.000140   0.338343  -0.043626   4.903461   0.408027
    12  H    0.000001   0.000004  -0.041988   0.003343   0.408027   0.575196
    13  H   -0.000005  -0.000004  -0.044535  -0.000244   0.400264  -0.027469
    14  H    0.000015  -0.000008  -0.042715  -0.002622   0.402929  -0.029443
    15  C   -0.000029   0.000000  -0.000000  -0.000000  -0.000000   0.000000
    16  H   -0.000001  -0.000000   0.000000  -0.000000   0.000000  -0.000000
    17  H   -0.000000   0.000000   0.000000   0.000000   0.000000   0.000000
    18  H    0.000222  -0.000001  -0.000001   0.000000  -0.000000   0.000000
    19  C    0.000017  -0.000000  -0.000002   0.000000   0.000000   0.000001
    20  C   -0.000000   0.000000  -0.000000   0.000000   0.000000  -0.000000
    21  H   -0.000000  -0.000000   0.000000   0.000000  -0.000000   0.000000
    22  H    0.000000  -0.000000   0.000000  -0.000000  -0.000000  -0.000000
    23  H    0.000000   0.000000  -0.000000   0.000000  -0.000000   0.000000
    24  C   -0.000082   0.000002  -0.000010   0.000002  -0.000022   0.000034
    25  H   -0.000000   0.000000   0.000009  -0.000000  -0.000002   0.000035
    26  C    0.000832  -0.000094  -0.003334  -0.000120   0.000493  -0.000174
    27  H    0.000016  -0.000006   0.000947  -0.000032   0.000105   0.000114
    28  H   -0.000581  -0.000024   0.000498   0.000002  -0.000024  -0.000005
              13         14         15         16         17         18
     1  C    0.000216   0.000233   0.000487   0.000071  -0.000041   0.000080
     2  H    0.000157  -0.000035  -0.000011  -0.000000   0.000000  -0.000011
     3  H    0.000029  -0.000010   0.000129  -0.000066   0.000012   0.000148
     4  C   -0.001300   0.000512  -0.000018  -0.000002   0.000001  -0.000063
     5  C   -0.000114  -0.000102  -0.000017   0.000000  -0.000000   0.000095
     6  H    0.000021  -0.000004  -0.000002   0.000000   0.000000   0.000005
     7  H   -0.000005   0.000015  -0.000029  -0.000001  -0.000000   0.000222
     8  H   -0.000004  -0.000008   0.000000  -0.000000   0.000000  -0.000001
     9  C   -0.044535  -0.042715  -0.000000   0.000000   0.000000  -0.000001
    10  H   -0.000244  -0.002622  -0.000000  -0.000000   0.000000   0.000000
    11  C    0.400264   0.402929  -0.000000   0.000000   0.000000  -0.000000
    12  H   -0.027469  -0.029443   0.000000  -0.000000   0.000000   0.000000
    13  H    0.585318  -0.033311   0.000000  -0.000000   0.000000  -0.000000
    14  H   -0.033311   0.585767  -0.000000   0.000000  -0.000000   0.000000
    15  C    0.000000  -0.000000   4.906822   0.402444   0.398579   0.405943
    16  H   -0.000000   0.000000   0.402444   0.585532  -0.033081  -0.029648
    17  H    0.000000  -0.000000   0.398579  -0.033081   0.583047  -0.026879
    18  H   -0.000000   0.000000   0.405943  -0.029648  -0.026879   0.570753
    19  C   -0.000000   0.000000   0.348921  -0.043837  -0.043922  -0.036970
    20  C    0.000000  -0.000000  -0.065373  -0.003425  -0.001680   0.003707
    21  H   -0.000000   0.000000   0.003697   0.000012  -0.000080  -0.000109
    22  H   -0.000000   0.000000  -0.002145   0.002838  -0.000367  -0.000072
    23  H    0.000000  -0.000000  -0.001092  -0.000508   0.002542  -0.000024
    24  C    0.000002  -0.000002  -0.043601   0.000408  -0.000742  -0.002888
    25  H   -0.000000  -0.000000   0.003359  -0.000112  -0.000124   0.000053
    26  C   -0.000045   0.000079  -0.007183   0.000276   0.000191  -0.002349
    27  H    0.000018  -0.000059   0.000145  -0.000012   0.000033   0.000041
    28  H   -0.000000   0.000000  -0.001877  -0.000035   0.000040  -0.001473
              19         20         21         22         23         24
     1  C   -0.002758  -0.000105  -0.000002   0.000021  -0.000004  -0.062590
     2  H    0.000602  -0.000001   0.000002  -0.000001   0.000000  -0.001372
     3  H    0.000934  -0.000032  -0.000002  -0.000005   0.000001  -0.000486
     4  C   -0.000035   0.000001   0.000000  -0.000000   0.000000   0.006102
     5  C    0.000007  -0.000000  -0.000000   0.000000  -0.000000  -0.000076
     6  H   -0.000001   0.000000  -0.000000  -0.000000  -0.000000   0.000000
     7  H    0.000017  -0.000000  -0.000000   0.000000   0.000000  -0.000082
     8  H   -0.000000   0.000000  -0.000000  -0.000000   0.000000   0.000002
     9  C   -0.000002  -0.000000   0.000000   0.000000  -0.000000  -0.000010
    10  H    0.000000   0.000000   0.000000  -0.000000   0.000000   0.000002
    11  C    0.000000   0.000000  -0.000000  -0.000000  -0.000000  -0.000022
    12  H    0.000001  -0.000000   0.000000  -0.000000   0.000000   0.000034
    13  H   -0.000000   0.000000  -0.000000  -0.000000   0.000000   0.000002
    14  H    0.000000  -0.000000   0.000000   0.000000  -0.000000  -0.000002
    15  C    0.348921  -0.065373   0.003697  -0.002145  -0.001092  -0.043601
    16  H   -0.043837  -0.003425   0.000012   0.002838  -0.000508   0.000408
    17  H   -0.043922  -0.001680  -0.000080  -0.000367   0.002542  -0.000742
    18  H   -0.036970   0.003707  -0.000109  -0.000072  -0.000024  -0.002888
    19  C    4.920221   0.351813  -0.040404  -0.044201  -0.045808   0.695497
    20  C    0.351813   4.903449   0.405379   0.396988   0.399271  -0.044527
    21  H   -0.040404   0.405379   0.568054  -0.027354  -0.027569  -0.002346
    22  H   -0.044201   0.396988  -0.027354   0.594256  -0.034891  -0.000622
    23  H   -0.045808   0.399271  -0.027569  -0.034891   0.593105  -0.001111
    24  C    0.695497  -0.044527  -0.002346  -0.000622  -0.001111   4.962278
    25  H   -0.035971  -0.006706   0.002203   0.000224   0.000153   0.403005
    26  C   -0.048865   0.003141   0.000141  -0.000086  -0.000123   0.341683
    27  H    0.000972  -0.000098  -0.000011  -0.000002   0.000012  -0.044009
    28  H    0.000557   0.000062   0.000006  -0.000003   0.000004  -0.043143
              25         26         27         28
     1  C   -0.000349   0.325389  -0.045281  -0.040031
     2  H    0.001131  -0.041392  -0.002680   0.004047
     3  H    0.000186  -0.042901   0.004395  -0.002359
     4  C   -0.000118  -0.056885  -0.001367  -0.002269
     5  C   -0.000002  -0.000803   0.000304  -0.000487
     6  H    0.000000   0.000024   0.000006   0.000076
     7  H   -0.000000   0.000832   0.000016  -0.000581
     8  H    0.000000  -0.000094  -0.000006  -0.000024
     9  C    0.000009  -0.003334   0.000947   0.000498
    10  H   -0.000000  -0.000120  -0.000032   0.000002
    11  C   -0.000002   0.000493   0.000105  -0.000024
    12  H    0.000035  -0.000174   0.000114  -0.000005
    13  H   -0.000000  -0.000045   0.000018  -0.000000
    14  H   -0.000000   0.000079  -0.000059   0.000000
    15  C    0.003359  -0.007183   0.000145  -0.001877
    16  H   -0.000112   0.000276  -0.000012  -0.000035
    17  H   -0.000124   0.000191   0.000033   0.000040
    18  H    0.000053  -0.002349   0.000041  -0.001473
    19  C   -0.035971  -0.048865   0.000972   0.000557
    20  C   -0.006706   0.003141  -0.000098   0.000062
    21  H    0.002203   0.000141  -0.000011   0.000006
    22  H    0.000224  -0.000086  -0.000002  -0.000003
    23  H    0.000153  -0.000123   0.000012   0.000004
    24  C    0.403005   0.341683  -0.044009  -0.043143
    25  H    0.558270  -0.041952  -0.003531   0.003304
    26  C   -0.041952   4.978451   0.415020   0.414997
    27  H   -0.003531   0.415020   0.581193  -0.029791
    28  H    0.003304   0.414997  -0.029791   0.579630
 Mulliken charges:
               1
     1  C   -0.233917
     2  H    0.121835
     3  H    0.119757
     4  C    0.015174
     5  C   -0.339638
     6  H    0.116209
     7  H    0.112922
     8  H    0.117235
     9  C   -0.154431
    10  H    0.116172
    11  C   -0.353712
    12  H    0.115956
    13  H    0.121002
    14  H    0.118778
    15  C   -0.349180
    16  H    0.119147
    17  H    0.122470
    18  H    0.119439
    19  C    0.023231
    20  C   -0.341865
    21  H    0.118383
    22  H    0.115424
    23  H    0.116040
    24  C   -0.161384
    25  H    0.116935
    26  C   -0.234413
    27  H    0.123557
    28  H    0.118876
 Sum of Mulliken charges =  -0.00000
 Mulliken charges with hydrogens summed into heavy atoms:
               1
     1  C    0.007675
     4  C    0.015174
     5  C    0.006727
     9  C   -0.038259
    11  C    0.002024
    15  C    0.011876
    19  C    0.023231
    20  C    0.007983
    24  C   -0.044448
    26  C    0.008019
 Electronic spatial extent (au):  <R**2>=           2544.9916
 Charge=              0.0000 electrons
 Dipole moment (field-independent basis, Debye):
    X=             -0.3492    Y=              0.1467    Z=              0.0262  Tot=              0.3797
 Quadrupole moment (field-independent basis, Debye-Ang):
   XX=            -63.8841   YY=            -63.9175   ZZ=            -67.2160
   XY=             -0.9694   XZ=             -0.9087   YZ=             -0.2407
 Traceless Quadrupole moment (field-independent basis, Debye-Ang):
   XX=              1.1217   YY=              1.0884   ZZ=             -2.2101
   XY=             -0.9694   XZ=             -0.9087   YZ=             -0.2407
 Octapole moment (field-independent basis, Debye-Ang**2):
  XXX=             -0.9293  YYY=             -2.8067  ZZZ=              0.8872  XYY=              0.2810
  XXY=              1.7958  XXZ=             -2.7180  XZZ=             -1.8068  YZZ=              1.3753
  YYZ=              0.5296  XYZ=              0.3810
 Hexadecapole moment (field-independent basis, Debye-Ang**3):
 XXXX=          -2708.1771 YYYY=           -641.3430 ZZZZ=           -161.4609 XXXY=             -7.7019
 XXXZ=            -11.8659 YYYX=              8.1734 YYYZ=             -1.4919 ZZZX=             -2.8123
 ZZZY=              1.9630 XXYY=           -565.0399 XXZZ=           -492.0475 YYZZ=           -130.8308
 XXYZ=             -3.0893 YYXZ=             -1.7811 ZZXY=             -8.1566
 N-N= 5.132772456211D+02 E-N=-1.931189171934D+03  KE= 3.886248156546D+02
 No NMR shielding tensors so no spin-rotation constants.
 Leave Link  601 at Fri Sep 17 13:39:07 2021, MaxMem=   524288000 cpu:               0.4 elap:               0.4
 (Enter /opt/gaussian/g16_legacy/l701.exe)
 ... and contract with generalized density number  2.
 Compute integral first derivatives.
 Leave Link  701 at Fri Sep 17 13:39:07 2021, MaxMem=   524288000 cpu:               0.4 elap:               0.4
 (Enter /opt/gaussian/g16_legacy/l702.exe)
 L702 exits ... SP integral derivatives will be done elsewhere.
 Leave Link  702 at Fri Sep 17 13:39:07 2021, MaxMem=   524288000 cpu:               0.1 elap:               0.1
 (Enter /opt/gaussian/g16_legacy/l703.exe)
 Integral derivatives from FoFJK, PRISM(SPDF).
 Compute integral first derivatives, UseDBF=F ICtDFT=           0.
 Calling FoFJK, ICntrl=  10002127 FMM=F ISym2X=0 I1Cent= 0 IOpClX= 0 NMat=1 NMatS=1 NMatT=0.
 FoFJK:  IHMeth= 1 ICntrl=10002127 DoSepK=F KAlg= 0 I1Cent=           0 FoldK=F
 IRaf=         0 NMat=       1 IRICut=       1 DoRegI=T DoRafI=F ISym2E= 0 IDoP0=0 IntGTp=1.
 FoFCou: FMM=F IPFlag=           0 FMFlag=      100000 FMFlg1=         800
         NFxFlg=           0 DoJE=F BraDBF=F KetDBF=F FulRan=T
         wScrn=  0.000000 ICntrl=  10002127 IOpCl=  0 I1Cent=           0 NGrid=           0
         NMat0=    1 NMatS0=      1 NMatT0=    0 NMatD0=    1 NMtDS0=    0 NMtDT0=    0
 Symmetry not used in FoFCou.
 Leave Link  703 at Fri Sep 17 13:39:43 2021, MaxMem=   524288000 cpu:              35.0 elap:              35.1
 (Enter /opt/gaussian/g16_legacy/l716.exe)
 Dipole        =-1.00118897D-01 3.50003041D-02 3.63154482D-03
 ***** Axes restored to original set *****
 -------------------------------------------------------------------
 Center     Atomic                   Forces (Hartrees/Bohr)
 Number     Number              X              Y              Z
 -------------------------------------------------------------------
      1        6          -0.008472943    0.001122217    0.003014132
      2        1           0.000527757   -0.002006563   -0.003339003
      3        1           0.000042617   -0.000604352   -0.004370046
      4        6          -0.003052336   -0.000699928    0.005235682
      5        6          -0.002802069   -0.001102049   -0.000664859
      6        1           0.001377333   -0.000956243   -0.002879477
      7        1           0.000309794   -0.000447493    0.003256536
      8        1           0.002825856    0.003030013   -0.000489734
      9        6           0.002301426   -0.001873533   -0.002108628
     10        1           0.003333027   -0.001094942    0.000524436
     11        6           0.000797301    0.002538945   -0.000727556
     12        1          -0.001955758   -0.002370461    0.001478647
     13        1           0.000294600    0.001579821   -0.003024517
     14        1           0.000069305    0.001505300    0.003119601
     15        6          -0.003735902   -0.002904953    0.000020600
     16        1           0.000772433    0.000683456   -0.003524821
     17        1           0.000612683   -0.000485661    0.003014486
     18        1           0.001552225    0.002851569   -0.001358984
     19        6          -0.001694553    0.004730155    0.002289399
     20        6          -0.001115744    0.003138579    0.000220144
     21        1          -0.000839099   -0.004226000    0.000077708
     22        1           0.001645626   -0.000486161   -0.003097922
     23        1           0.000497574   -0.000074084    0.003330765
     24        6          -0.001283449   -0.002071620   -0.004489134
     25        1           0.002633571   -0.001757926    0.001152878
     26        6           0.006808362    0.001458444   -0.003249625
     27        1          -0.001368317   -0.001159898    0.003848927
     28        1          -0.000081318    0.001683368    0.002740367
 -------------------------------------------------------------------
 Cartesian Forces:  Max     0.008472943 RMS     0.002532949
 Leave Link  716 at Fri Sep 17 13:39:43 2021, MaxMem=   524288000 cpu:               0.1 elap:               0.1
 (Enter /opt/gaussian/g16_legacy/l103.exe)

 GradGradGradGradGradGradGradGradGradGradGradGradGradGradGradGradGradGrad
 Berny optimization.
 FormGI is forming the generalized inverse of G from B-inverse, IUseBI=4.
 Internal  Forces:  Max     0.004113492 RMS     0.001889423
 Search for a local minimum.
 Step number   1 out of a maximum of  138
 All quantities printed in internal units (Hartrees-Bohrs-Radians)
 RMS Force = .18894D-02 SwitMx=.10000D-02 MixMth= 1
 Mixed Optimization -- RFO/linear search
 Second derivative matrix not updated -- first step.
 ITU=  0
     Eigenvalues ---    0.00341   0.00569   0.00668   0.00679   0.00693
     Eigenvalues ---    0.00715   0.00819   0.01219   0.01287   0.01570
     Eigenvalues ---    0.01642   0.02780   0.02785   0.04014   0.04133
     Eigenvalues ---    0.05350   0.05403   0.06982   0.07039   0.07088
     Eigenvalues ---    0.07092   0.07265   0.07300   0.07347   0.07506
     Eigenvalues ---    0.09278   0.09364   0.12769   0.12845   0.15999
     Eigenvalues ---    0.15999   0.16000   0.16000   0.16000   0.16000
     Eigenvalues ---    0.16000   0.16000   0.16000   0.16000   0.16000
     Eigenvalues ---    0.16000   0.16000   0.16000   0.21860   0.21867
     Eigenvalues ---    0.22000   0.22000   0.24993   0.24996   0.24998
     Eigenvalues ---    0.24999   0.29231   0.30865   0.31609   0.31699
     Eigenvalues ---    0.31806   0.31976   0.32803   0.33868   0.33935
     Eigenvalues ---    0.34075   0.34196   0.34215   0.34236   0.34246
     Eigenvalues ---    0.34246   0.34259   0.34267   0.34274   0.34297
     Eigenvalues ---    0.34301   0.34328   0.34535   0.34560   0.34792
     Eigenvalues ---    0.34842   0.55511   0.55579
 RFO step:  Lambda=-2.86223710D-03 EMin= 3.41468310D-03
 Linear search not attempted -- first point.
 Iteration  1 RMS(Cart)=  0.04045119 RMS(Int)=  0.00070844
 Iteration  2 RMS(Cart)=  0.00101870 RMS(Int)=  0.00015605
 Iteration  3 RMS(Cart)=  0.00000056 RMS(Int)=  0.00015605
 ITry= 1 IFail=0 DXMaxC= 1.41D-01 DCOld= 1.00D+10 DXMaxT= 3.00D-01 DXLimC= 3.00D+00 Rises=F
 Variable       Old X    -DE/DX   Delta X   Delta X   Delta X     New X
                                 (Linear)    (Quad)   (Total)
    R1        2.07204  -0.00287   0.00000  -0.00836  -0.00836   2.06368
    R2        2.07553  -0.00308   0.00000  -0.00901  -0.00901   2.06653
    R3        2.86271  -0.00351   0.00000  -0.01127  -0.01127   2.85144
    R4        2.89523   0.00157   0.00000   0.00532   0.00532   2.90055
    R5        2.84865  -0.00061   0.00000  -0.00192  -0.00192   2.84673
    R6        2.54681  -0.00384   0.00000  -0.00689  -0.00689   2.53992
    R7        2.06895  -0.00209   0.00000  -0.00606  -0.00606   2.06290
    R8        2.06825  -0.00167   0.00000  -0.00483  -0.00483   2.06343
    R9        2.06968  -0.00377   0.00000  -0.01094  -0.01094   2.05874
   R10        2.05931  -0.00220   0.00000  -0.00627  -0.00627   2.05305
   R11        2.82699   0.00308   0.00000   0.00931   0.00931   2.83630
   R12        2.06396  -0.00301   0.00000  -0.00864  -0.00864   2.05532
   R13        2.06781  -0.00164   0.00000  -0.00473  -0.00473   2.06307
   R14        2.06881  -0.00263   0.00000  -0.00760  -0.00760   2.06121
   R15        2.07001  -0.00268   0.00000  -0.00779  -0.00779   2.06222
   R16        2.06870  -0.00184   0.00000  -0.00531  -0.00531   2.06339
   R17        2.06437  -0.00295   0.00000  -0.00848  -0.00848   2.05589
   R18        2.84187  -0.00047   0.00000  -0.00146  -0.00146   2.84041
   R19        2.84697  -0.00078   0.00000  -0.00242  -0.00242   2.84455
   R20        2.54621  -0.00322   0.00000  -0.00576  -0.00576   2.54045
   R21        2.06934  -0.00391   0.00000  -0.01134  -0.01134   2.05801
   R22        2.06916  -0.00201   0.00000  -0.00582  -0.00582   2.06334
   R23        2.06917  -0.00200   0.00000  -0.00580  -0.00580   2.06336
   R24        2.06014  -0.00204   0.00000  -0.00581  -0.00581   2.05433
   R25        2.84500  -0.00139   0.00000  -0.00432  -0.00432   2.84068
   R26        2.07439  -0.00275   0.00000  -0.00803  -0.00803   2.06636
   R27        2.06831  -0.00236   0.00000  -0.00682  -0.00682   2.06149
    A1        1.83012   0.00205   0.00000   0.02209   0.02192   1.85204
    A2        1.93126  -0.00018   0.00000   0.00556   0.00558   1.93684
    A3        1.91970  -0.00200   0.00000  -0.01366  -0.01370   1.90600
    A4        1.90137  -0.00009   0.00000   0.00120   0.00120   1.90257
    A5        1.91814  -0.00274   0.00000  -0.02405  -0.02408   1.89406
    A6        1.95883   0.00286   0.00000   0.00936   0.00940   1.96823
    A7        2.00703   0.00175   0.00000   0.00722   0.00667   2.01370
    A8        2.17215  -0.00411   0.00000  -0.01589  -0.01640   2.15575
    A9        2.10380   0.00239   0.00000   0.00982   0.00927   2.11307
   A10        1.92479   0.00165   0.00000   0.00905   0.00907   1.93385
   A11        1.92857   0.00226   0.00000   0.01206   0.01208   1.94065
   A12        1.95918  -0.00265   0.00000  -0.01329  -0.01325   1.94593
   A13        1.89472  -0.00306   0.00000  -0.02458  -0.02457   1.87014
   A14        1.87752   0.00112   0.00000   0.01038   0.01042   1.88793
   A15        1.87689   0.00055   0.00000   0.00556   0.00560   1.88249
   A16        2.06920  -0.00194   0.00000  -0.01337  -0.01339   2.05581
   A17        2.22593  -0.00182   0.00000  -0.00814  -0.00816   2.21776
   A18        1.98793   0.00377   0.00000   0.02169   0.02167   2.00960
   A19        1.98081  -0.00284   0.00000  -0.01746  -0.01738   1.96343
   A20        1.91727   0.00385   0.00000   0.02273   0.02269   1.93997
   A21        1.91002   0.00238   0.00000   0.01556   0.01551   1.92553
   A22        1.89302  -0.00096   0.00000  -0.00755  -0.00746   1.88556
   A23        1.87297   0.00044   0.00000   0.00437   0.00444   1.87740
   A24        1.88715  -0.00306   0.00000  -0.01874  -0.01891   1.86824
   A25        1.89080  -0.00238   0.00000  -0.02157  -0.02155   1.86925
   A26        1.86359   0.00194   0.00000   0.01657   0.01658   1.88016
   A27        1.92087   0.00000   0.00000  -0.00094  -0.00092   1.91995
   A28        1.88476   0.00022   0.00000   0.00331   0.00333   1.88809
   A29        1.92167   0.00225   0.00000   0.01141   0.01143   1.93310
   A30        1.97927  -0.00212   0.00000  -0.00956  -0.00955   1.96972
   A31        1.99471   0.00147   0.00000   0.00584   0.00582   2.00053
   A32        2.18285  -0.00336   0.00000  -0.01324  -0.01326   2.16959
   A33        2.10557   0.00189   0.00000   0.00751   0.00748   2.11306
   A34        1.96057  -0.00276   0.00000  -0.01383  -0.01379   1.94678
   A35        1.92493   0.00221   0.00000   0.01240   0.01243   1.93735
   A36        1.92342   0.00175   0.00000   0.00881   0.00883   1.93226
   A37        1.87917   0.00092   0.00000   0.00936   0.00940   1.88857
   A38        1.87886   0.00091   0.00000   0.00787   0.00791   1.88677
   A39        1.89489  -0.00314   0.00000  -0.02547  -0.02546   1.86943
   A40        2.06738  -0.00180   0.00000  -0.01219  -0.01259   2.05479
   A41        2.22783  -0.00178   0.00000  -0.00781  -0.00822   2.21961
   A42        1.98784   0.00359   0.00000   0.02081   0.02040   2.00824
   A43        1.94440   0.00331   0.00000   0.01373   0.01377   1.95817
   A44        1.91629  -0.00337   0.00000  -0.02311  -0.02330   1.89298
   A45        1.93088  -0.00167   0.00000  -0.01696  -0.01704   1.91384
   A46        1.88215   0.00136   0.00000   0.02211   0.02222   1.90438
   A47        1.94480  -0.00129   0.00000  -0.00736  -0.00730   1.93750
   A48        1.84179   0.00155   0.00000   0.01192   0.01166   1.85345
    D1       -2.64815  -0.00158   0.00000  -0.05494  -0.05476  -2.70291
    D2        0.47165  -0.00062   0.00000   0.00615   0.00594   0.47759
    D3       -0.64494   0.00074   0.00000  -0.02461  -0.02439  -0.66932
    D4        2.47487   0.00169   0.00000   0.03648   0.03631   2.51118
    D5        1.48335  -0.00090   0.00000  -0.04804  -0.04786   1.43549
    D6       -1.68003   0.00005   0.00000   0.01305   0.01284  -1.66719
    D7        0.96563   0.00055   0.00000   0.01717   0.01717   0.98281
    D8       -1.11818  -0.00105   0.00000  -0.00402  -0.00384  -1.12202
    D9        3.13916   0.00005   0.00000   0.00514   0.00510  -3.13892
   D10       -1.04069   0.00078   0.00000   0.01199   0.01190  -1.02879
   D11       -3.12451  -0.00082   0.00000  -0.00920  -0.00911  -3.13362
   D12        1.13283   0.00027   0.00000  -0.00005  -0.00017   1.13267
   D13        3.12379   0.00088   0.00000   0.02098   0.02093  -3.13847
   D14        1.03997  -0.00072   0.00000  -0.00021  -0.00009   1.03988
   D15       -0.98587   0.00038   0.00000   0.00895   0.00886  -0.97702
   D16        1.03805  -0.00011   0.00000   0.03755   0.03786   1.07591
[...]
                 (A) (A) (A) (A) (A) (A) (A) (A) (A) (A) (A) (A)
                 (A) (A) (A) (A) (A) (A) (A) (A) (A) (A) (A) (A)
                 (A) (A) (A) (A) (A) (A) (A) (A) (A) (A) (A) (A)
                 (A) (A) (A) (A) (A) (A) (A) (A) (A) (A) (A) (A)
                 (A) (A) (A) (A) (A) (A) (A) (A) (A) (A) (A) (A)
                 (A) (A) (A) (A) (A) (A) (A) (A) (A) (A) (A) (A)
                 (A) (A) (A) (A) (A) (A) (A) (A) (A) (A) (A) (A)
                 (A) (A) (A) (A) (A) (A) (A) (A) (A) (A) (A) (A)
                 (A) (A) (A) (A) (A) (A) (A) (A) (A) (A) (A) (A)
                 (A) (A) (A) (A) (A) (A) (A) (A) (A) (A) (A) (A)
                 (A) (A) (A) (A) (A) (A) (A) (A) (A) (A) (A) (A)
                 (A) (A) (A) (A) (A) (A) (A) (A) (A) (A) (A) (A)
                 (A) (A) (A) (A) (A) (A) (A) (A) (A)
 The electronic state is 1-A.
 Alpha  occ. eigenvalues --  -11.23028 -11.22456 -11.21863 -11.21726 -11.21721
 Alpha  occ. eigenvalues --  -11.21541 -11.21497 -11.21449 -11.21393 -11.21358
 Alpha  occ. eigenvalues --   -1.10803  -1.08495  -1.01828  -0.98138  -0.93839
 Alpha  occ. eigenvalues --   -0.91936  -0.86954  -0.82861  -0.70567  -0.69489
 Alpha  occ. eigenvalues --   -0.64754  -0.61539  -0.60720  -0.58828  -0.58414
 Alpha  occ. eigenvalues --   -0.56814  -0.55405  -0.54979  -0.53298  -0.52217
 Alpha  occ. eigenvalues --   -0.51714  -0.51214  -0.50653  -0.50166  -0.47383
 Alpha  occ. eigenvalues --   -0.46917  -0.44458  -0.33328  -0.31563
 Alpha virt. eigenvalues --    0.18100   0.19932   0.22053   0.24536   0.24955
 Alpha virt. eigenvalues --    0.27424   0.28601   0.28877   0.30353   0.30694
 Alpha virt. eigenvalues --    0.31966   0.32601   0.32969   0.33726   0.34466
 Alpha virt. eigenvalues --    0.35524   0.36421   0.37370   0.38662   0.39972
 Alpha virt. eigenvalues --    0.40998   0.42095   0.42777   0.44262   0.45477
 Alpha virt. eigenvalues --    0.51938   0.54227   0.61292   0.62632   0.69521
 Alpha virt. eigenvalues --    0.71676   0.71855   0.74127   0.75627   0.76300
 Alpha virt. eigenvalues --    0.77310   0.78587   0.80192   0.80428   0.82510
 Alpha virt. eigenvalues --    0.83060   0.85963   0.89706   0.90634   0.91906
 Alpha virt. eigenvalues --    0.92727   0.94246   0.96733   0.97890   0.99038
 Alpha virt. eigenvalues --    0.99663   1.01316   1.02330   1.04636   1.06421
 Alpha virt. eigenvalues --    1.06946   1.08561   1.08610   1.11036   1.12563
 Alpha virt. eigenvalues --    1.13528   1.14242   1.14315   1.15516   1.15561
 Alpha virt. eigenvalues --    1.15995   1.16443   1.18511   1.18881   1.20423
 Alpha virt. eigenvalues --    1.21361   1.22874   1.23837   1.26678   1.27279
 Alpha virt. eigenvalues --    1.29587   1.40505   1.41229   1.45131   1.46302
 Alpha virt. eigenvalues --    1.47303   1.54539   1.56916   1.57904   1.58162
 Alpha virt. eigenvalues --    1.61580   1.62900   1.65166   1.67986   1.70099
 Alpha virt. eigenvalues --    1.73688   1.82808   1.91104   1.92024   1.96649
 Alpha virt. eigenvalues --    1.98629   2.01394   2.02264   2.04662   2.08570
 Alpha virt. eigenvalues --    2.09659   2.11023   2.11867   2.13286   2.14333
 Alpha virt. eigenvalues --    2.15615   2.17830   2.19386   2.23464   2.28302
 Alpha virt. eigenvalues --    2.29342   2.30634   2.33018   2.35331   2.35655
 Alpha virt. eigenvalues --    2.35947   2.36091   2.39306   2.40246   2.40800
 Alpha virt. eigenvalues --    2.42218   2.43338   2.43738   2.45452   2.46063
 Alpha virt. eigenvalues --    2.47468   2.49490   2.50160   2.50478   2.53353
 Alpha virt. eigenvalues --    2.56171   2.59443   2.61268   2.62977   2.65059
 Alpha virt. eigenvalues --    2.67062   2.68311   2.71449   2.72617   2.74255
 Alpha virt. eigenvalues --    2.76086   2.77474   2.80595   2.82947   2.83712
 Alpha virt. eigenvalues --    2.86556   2.90534   2.92645   2.94406   2.94575
 Alpha virt. eigenvalues --    2.97681   2.98672   3.01242   3.02716   3.05048
 Alpha virt. eigenvalues --    3.06983   3.08131   3.09712   3.12652   3.17075
 Alpha virt. eigenvalues --    3.17580   3.18813   3.20184   3.20611   3.22304
 Alpha virt. eigenvalues --    3.23445   3.25849   3.26685   3.27777   3.38376
 Alpha virt. eigenvalues --    3.40097   3.45764   3.46979   3.56086   3.58279
 Alpha virt. eigenvalues --    3.59222   3.61997   3.68641   3.74872   3.78914
 Alpha virt. eigenvalues --    3.79698   3.81279   3.82681   3.83341   3.84006
 Alpha virt. eigenvalues --    3.84104   3.86511   3.88184   3.89137   3.91421
 Alpha virt. eigenvalues --    3.97579   4.59401   4.62757   4.74521   4.82179
 Alpha virt. eigenvalues --    4.89167   4.92294   4.93230   5.07407   5.10903
 Alpha virt. eigenvalues --    5.17835
          Condensed to atoms (all electrons):
               1          2          3          4          5          6
     1  C    5.003997   0.413411   0.412745   0.339223  -0.057161  -0.003571
     2  H    0.413411   0.576310  -0.028359  -0.039654   0.003215  -0.000037
     3  H    0.412745  -0.028359   0.584867  -0.045647  -0.004621   0.002410
     4  C    0.339223  -0.039654  -0.045647   4.951262   0.352880  -0.041600
     5  C   -0.057161   0.003215  -0.004621   0.352880   4.891657   0.397676
     6  H   -0.003571  -0.000037   0.002410  -0.041600   0.397676   0.591603
     7  H   -0.000045  -0.000012  -0.000557  -0.045807   0.400489  -0.037733
     8  H    0.003819  -0.000111   0.000114  -0.042642   0.407271  -0.026708
     9  C   -0.046575  -0.001941   0.002347   0.696859  -0.046080  -0.000465
    10  H    0.003280   0.000029  -0.000115  -0.037937  -0.006573   0.000218
    11  C   -0.007739  -0.002699   0.000152  -0.049997   0.003357  -0.000104
    12  H   -0.002166  -0.001508   0.000038  -0.000577   0.000102   0.000001
    13  H    0.000167   0.000160   0.000018  -0.000541  -0.000105   0.000017
    14  H    0.000295  -0.000067  -0.000013  -0.000357  -0.000097  -0.000004
    15  C    0.000549  -0.000016   0.000191  -0.000019  -0.000025  -0.000001
    16  H    0.000120  -0.000001  -0.000099  -0.000004   0.000001   0.000000
    17  H   -0.000041   0.000000   0.000017   0.000001  -0.000000   0.000000
    18  H   -0.000058  -0.000011   0.000094  -0.000061   0.000096  -0.000000
    19  C   -0.004098   0.000622   0.001256  -0.000004   0.000007  -0.000001
    20  C   -0.000102  -0.000001  -0.000045   0.000002  -0.000000   0.000000
    21  H   -0.000003   0.000002  -0.000002   0.000000  -0.000000  -0.000000
    22  H    0.000024  -0.000001  -0.000008  -0.000000   0.000000  -0.000000
    23  H   -0.000005   0.000000   0.000002   0.000000  -0.000000   0.000000
    24  C   -0.062090  -0.001230   0.000057   0.006210  -0.000074   0.000003
    25  H   -0.000091   0.001050   0.000171  -0.000105  -0.000002   0.000000
    26  C    0.331128  -0.042384  -0.045729  -0.055684  -0.001011   0.000075
    27  H   -0.046717  -0.002896   0.004692  -0.001441   0.000280   0.000005
    28  H   -0.042601   0.004316  -0.002340  -0.002245  -0.000436   0.000058
               7          8          9         10         11         12
     1  C   -0.000045   0.003819  -0.046575   0.003280  -0.007739  -0.002166
     2  H   -0.000012  -0.000111  -0.001941   0.000029  -0.002699  -0.001508
     3  H   -0.000557   0.000114   0.002347  -0.000115   0.000152   0.000038
     4  C   -0.045807  -0.042642   0.696859  -0.037937  -0.049997  -0.000577
     5  C    0.400489   0.407271  -0.046080  -0.006573   0.003357   0.000102
     6  H   -0.037733  -0.026708  -0.000465   0.000218  -0.000104   0.000001
     7  H    0.599593  -0.027516  -0.000883   0.000143  -0.000102  -0.000002
     8  H   -0.027516   0.568320  -0.002982   0.002347   0.000133   0.000005
     9  C   -0.000883  -0.002982   4.938271   0.404337   0.340912  -0.043875
    10  H    0.000143   0.002347   0.404337   0.559262  -0.041317   0.003330
    11  C   -0.000102   0.000133   0.340912  -0.041317   4.898015   0.409145
    12  H   -0.000002   0.000005  -0.043875   0.003330   0.409145   0.577276
    13  H   -0.000004  -0.000006  -0.041774  -0.001163   0.401438  -0.027817
    14  H    0.000016  -0.000005  -0.041711  -0.001238   0.401889  -0.029082
    15  C   -0.000043   0.000000  -0.000000  -0.000000  -0.000000   0.000000
    16  H   -0.000001  -0.000000   0.000000  -0.000000   0.000000  -0.000000
    17  H   -0.000000   0.000000   0.000000   0.000000   0.000000   0.000000
    18  H    0.000361  -0.000001  -0.000001   0.000000  -0.000000   0.000000
    19  C    0.000021  -0.000000  -0.000003   0.000000   0.000000   0.000001
    20  C   -0.000000   0.000000  -0.000000   0.000000   0.000000  -0.000000
    21  H   -0.000000  -0.000000  -0.000000   0.000000  -0.000000   0.000000
    22  H    0.000000  -0.000000   0.000000  -0.000000  -0.000000  -0.000000
    23  H    0.000000   0.000000  -0.000000   0.000000  -0.000000   0.000000
    24  C   -0.000104   0.000002   0.000036   0.000002  -0.000027   0.000064
    25  H   -0.000000   0.000000   0.000007  -0.000000  -0.000002   0.000025
    26  C    0.000669  -0.000108  -0.004455  -0.000120   0.000509  -0.000554
    27  H   -0.000003  -0.000004   0.001236  -0.000038   0.000051   0.000016
    28  H   -0.000466  -0.000040   0.000648   0.000001  -0.000030  -0.000004
              13         14         15         16         17         18
     1  C    0.000167   0.000295   0.000549   0.000120  -0.000041  -0.000058
     2  H    0.000160  -0.000067  -0.000016  -0.000001   0.000000  -0.000011
     3  H    0.000018  -0.000013   0.000191  -0.000099   0.000017   0.000094
     4  C   -0.000541  -0.000357  -0.000019  -0.000004   0.000001  -0.000061
     5  C   -0.000105  -0.000097  -0.000025   0.000001  -0.000000   0.000096
     6  H    0.000017  -0.000004  -0.000001   0.000000   0.000000  -0.000000
     7  H   -0.000004   0.000016  -0.000043  -0.000001  -0.000000   0.000361
     8  H   -0.000006  -0.000005   0.000000  -0.000000   0.000000  -0.000001
     9  C   -0.041774  -0.041711  -0.000000   0.000000   0.000000  -0.000001
    10  H   -0.001163  -0.001238  -0.000000  -0.000000   0.000000   0.000000
    11  C    0.401438   0.401889  -0.000000   0.000000   0.000000  -0.000000
    12  H   -0.027817  -0.029082   0.000000  -0.000000   0.000000   0.000000
    13  H    0.584890  -0.035520   0.000000  -0.000000   0.000000  -0.000000
    14  H   -0.035520   0.585671  -0.000000   0.000000  -0.000000   0.000000
    15  C    0.000000  -0.000000   4.904567   0.401034   0.400306   0.406928
    16  H   -0.000000   0.000000   0.401034   0.586876  -0.035758  -0.028092
    17  H    0.000000  -0.000000   0.400306  -0.035758   0.585123  -0.026774
    18  H   -0.000000   0.000000   0.406928  -0.028092  -0.026774   0.570628
    19  C   -0.000000   0.000000   0.350683  -0.043358  -0.043642  -0.037727
    20  C    0.000000  -0.000000  -0.065053  -0.002670  -0.002204   0.003758
    21  H   -0.000000  -0.000000   0.003789  -0.000029  -0.000055  -0.000115
    22  H   -0.000000   0.000000  -0.001990   0.002769  -0.000448  -0.000068
    23  H    0.000000  -0.000000  -0.001177  -0.000486   0.002752  -0.000032
    24  C    0.000002  -0.000007  -0.044156  -0.000024  -0.000378  -0.003150
    25  H   -0.000000  -0.000000   0.003541  -0.000122  -0.000120   0.000051
    26  C   -0.000037   0.000149  -0.007949   0.000348   0.000140  -0.002567
    27  H    0.000025  -0.000081   0.000178  -0.000014   0.000024   0.000062
    28  H   -0.000000  -0.000000  -0.002567  -0.000063   0.000086  -0.001998
              19         20         21         22         23         24
     1  C   -0.004098  -0.000102  -0.000003   0.000024  -0.000005  -0.062090
     2  H    0.000622  -0.000001   0.000002  -0.000001   0.000000  -0.001230
     3  H    0.001256  -0.000045  -0.000002  -0.000008   0.000002   0.000057
     4  C   -0.000004   0.000002   0.000000  -0.000000   0.000000   0.006210
     5  C    0.000007  -0.000000  -0.000000   0.000000  -0.000000  -0.000074
     6  H   -0.000001   0.000000  -0.000000  -0.000000   0.000000   0.000003
     7  H    0.000021  -0.000000  -0.000000   0.000000   0.000000  -0.000104
     8  H   -0.000000   0.000000  -0.000000  -0.000000   0.000000   0.000002
     9  C   -0.000003  -0.000000  -0.000000   0.000000  -0.000000   0.000036
    10  H    0.000000   0.000000   0.000000  -0.000000   0.000000   0.000002
    11  C    0.000000   0.000000  -0.000000  -0.000000  -0.000000  -0.000027
    12  H    0.000001  -0.000000   0.000000  -0.000000   0.000000   0.000064
    13  H   -0.000000   0.000000  -0.000000  -0.000000   0.000000   0.000002
    14  H    0.000000  -0.000000  -0.000000   0.000000  -0.000000  -0.000007
    15  C    0.350683  -0.065053   0.003789  -0.001990  -0.001177  -0.044156
    16  H   -0.043358  -0.002670  -0.000029   0.002769  -0.000486  -0.000024
    17  H   -0.043642  -0.002204  -0.000055  -0.000448   0.002752  -0.000378
    18  H   -0.037727   0.003758  -0.000115  -0.000068  -0.000032  -0.003150
    19  C    4.915064   0.353472  -0.041665  -0.043823  -0.044307   0.696285
    20  C    0.353472   4.900552   0.406165   0.398175   0.398830  -0.044228
    21  H   -0.041665   0.406165   0.565965  -0.026667  -0.026546  -0.002577
    22  H   -0.043823   0.398175  -0.026667   0.594540  -0.037823  -0.000470
    23  H   -0.044307   0.398830  -0.026546  -0.037823   0.593696  -0.001279
    24  C    0.696285  -0.044228  -0.002577  -0.000470  -0.001279   4.960934
    25  H   -0.038332  -0.006998   0.002368   0.000180   0.000188   0.403960
    26  C   -0.049354   0.003136   0.000144  -0.000071  -0.000128   0.340992
    27  H    0.001446  -0.000091  -0.000009  -0.000002   0.000009  -0.041006
    28  H    0.000417   0.000050   0.000007  -0.000004   0.000006  -0.044503
              25         26         27         28
     1  C   -0.000091   0.331128  -0.046717  -0.042601
     2  H    0.001050  -0.042384  -0.002896   0.004316
     3  H    0.000171  -0.045729   0.004692  -0.002340
     4  C   -0.000105  -0.055684  -0.001441  -0.002245
     5  C   -0.000002  -0.001011   0.000280  -0.000436
     6  H    0.000000   0.000075   0.000005   0.000058
     7  H   -0.000000   0.000669  -0.000003  -0.000466
     8  H    0.000000  -0.000108  -0.000004  -0.000040
     9  C    0.000007  -0.004455   0.001236   0.000648
    10  H   -0.000000  -0.000120  -0.000038   0.000001
    11  C   -0.000002   0.000509   0.000051  -0.000030
    12  H    0.000025  -0.000554   0.000016  -0.000004
    13  H   -0.000000  -0.000037   0.000025  -0.000000
    14  H   -0.000000   0.000149  -0.000081  -0.000000
    15  C    0.003541  -0.007949   0.000178  -0.002567
    16  H   -0.000122   0.000348  -0.000014  -0.000063
    17  H   -0.000120   0.000140   0.000024   0.000086
    18  H    0.000051  -0.002567   0.000062  -0.001998
    19  C   -0.038332  -0.049354   0.001446   0.000417
    20  C   -0.006998   0.003136  -0.000091   0.000050
    21  H    0.002368   0.000144  -0.000009   0.000007
    22  H    0.000180  -0.000071  -0.000002  -0.000004
    23  H    0.000188  -0.000128   0.000009   0.000006
    24  C    0.403960   0.340992  -0.041006  -0.044503
    25  H    0.558056  -0.040061  -0.003353   0.003267
    26  C   -0.040061   4.977839   0.413228   0.416251
    27  H   -0.003353   0.413228   0.579538  -0.028540
    28  H    0.003267   0.416251  -0.028540   0.582598
 Mulliken charges:
               1
     1  C   -0.235696
     2  H    0.121814
     3  H    0.118365
     4  C    0.017883
     5  C   -0.340845
     6  H    0.118156
     7  H    0.111985
     8  H    0.118112
     9  C   -0.153908
    10  H    0.115552
    11  C   -0.353585
    12  H    0.115581
    13  H    0.120250
    14  H    0.120163
    15  C   -0.348771
    16  H    0.119572
    17  H    0.120971
    18  H    0.118676
    19  C    0.027041
    20  C   -0.342746
    21  H    0.119226
    22  H    0.115688
    23  H    0.116299
    24  C   -0.163245
    25  H    0.116321
    26  C   -0.234395
    27  H    0.123405
    28  H    0.118132
 Sum of Mulliken charges =  -0.00000
 Mulliken charges with hydrogens summed into heavy atoms:
               1
     1  C    0.004483
     4  C    0.017883
     5  C    0.007409
     9  C   -0.038356
    11  C    0.002408
    15  C    0.010448
    19  C    0.027041
    20  C    0.008467
    24  C   -0.046924
    26  C    0.007142
 Electronic spatial extent (au):  <R**2>=           2498.6190
 Charge=             -0.0000 electrons
 Dipole moment (field-independent basis, Debye):
    X=             -0.3626    Y=              0.1699    Z=              0.0498  Tot=              0.4035
 Quadrupole moment (field-independent basis, Debye-Ang):
   XX=            -63.7582   YY=            -63.7112   ZZ=            -67.3994
   XY=             -1.0617   XZ=             -1.2177   YZ=             -0.3674
 Traceless Quadrupole moment (field-independent basis, Debye-Ang):
   XX=              1.1981   YY=              1.2451   ZZ=             -2.4431
   XY=             -1.0617   XZ=             -1.2177   YZ=             -0.3674
 Octapole moment (field-independent basis, Debye-Ang**2):
  XXX=             -2.8324  YYY=             -2.8562  ZZZ=              0.8775  XYY=              0.7382
  XXY=              1.7310  XXZ=             -2.8067  XZZ=             -1.5462  YZZ=              1.4376
  YYZ=              0.7861  XYZ=              0.4940
 Hexadecapole moment (field-independent basis, Debye-Ang**3):
 XXXX=          -2633.5372 YYYY=           -638.9541 ZZZZ=           -166.0441 XXXY=            -10.5035
 XXXZ=            -13.5606 YYYX=              7.0821 YYYZ=             -1.6739 ZZZX=             -4.0398
 ZZZY=              2.3776 XXYY=           -550.6724 XXZZ=           -483.2681 YYZZ=           -131.1157
 XXYZ=             -4.5756 YYXZ=             -2.5312 ZZXY=             -7.7339
 N-N= 5.156964011320D+02 E-N=-1.936106168569D+03  KE= 3.887456779892D+02
 No NMR shielding tensors so no spin-rotation constants.
 Leave Link  601 at Fri Sep 17 15:32:54 2021, MaxMem=   524288000 cpu:               0.3 elap:               0.3
 (Enter /opt/gaussian/g16_legacy/l9999.exe)
 1\1\GINC-TRUENO90\FOpt\RMP2-FC\6-31G(d,p)\C10H18\JRAMOS\17-Sep-2021\0\
 \#p opt mp2/6-31g(d,p)\\Conformer number 1471. Energy MM = 23.287 kcal
 /mol\\0,1\C,-0.7411656438,0.1752416097,0.5890063841\H,-0.8913144468,1.
 2130562938,0.8914879984\H,-0.1405532942,-0.2891873406,1.3760177778\C,-
 2.0538308983,-0.555910064,0.4620208404\C,-1.9955136463,-2.0346775887,0
 .7346631859\H,-1.7079980452,-2.2272378165,1.7705766657\H,-1.2489885137
 ,-2.5210140122,0.1026126919\H,-2.9563856632,-2.5139359968,0.5515221431
 \C,-3.203865845,0.0326094707,0.0840827303\H,-4.0863256127,-0.595649168
 ,-0.0005322731\C,-3.4128046531,1.4802680177,-0.241725799\H,-2.49800094
 84,2.0615142536,-0.1530386115\H,-4.1605425751,1.9247669074,0.417778784
 8\H,-3.7811455897,1.5956212523,-1.2627303205\C,2.825784349,-1.18864100
 27,-0.2166041506\H,3.2926054277,-1.4104136199,0.7454312919\H,3.5153022
 917,-1.5355304731,-0.9894656507\H,1.912638513,-1.7739788631,-0.2878949
 874\C,2.5879510769,0.2902686819,-0.347425307\C,3.819863948,1.140029171
 ,-0.1993266877\H,3.5907127549,2.1991247939,-0.3067787403\H,4.283416874
 ,0.9869492785,0.7778483215\H,4.5678775543,0.8737476943,-0.9495664738\C
 ,1.386446541,0.8504241324,-0.5825793783\H,1.3430522287,1.935543642,-0.
 6348628013\C,0.0694397662,0.1464064451,-0.7210848492\H,-0.5233754425,0
 .6289500448,-1.5024788428\H,0.2066194925,-0.8885457435,-1.0370539425\\
 Version=EM64L-G16RevA.03\State=1-A\HF=-389.1568792\MP2=-390.573553\RMS
 D=2.426e-09\RMSF=3.866e-06\Dipole=0.1085199,-0.0344183,0.013692\PG=C01
  [X(C10H18)]\\@


 I FIND THAT THE THREE TRULY GREAT TIMES FOR THINKING THOUGHTS
 ARE WHEN I AM STANDING IN THE SHOWER, SITTING ON THE JOHN, OR WALKING.

                                    -- COLIN FLETCHER
 Job cpu time:       0 days  2 hours  0 minutes  0.9 seconds.
 Elapsed time:       0 days  2 hours  0 minutes 16.4 seconds.
 File lengths (MBytes):  RWF=     32 Int=      0 D2E=      0 Chk=      7 Scr=      1
 Normal termination of Gaussian 16 at Fri Sep 17 15:32:55 2021.
