 Entering Gaussian System, Link 0=/opt/gaussian/g16_legacy/g16
 Input=01-IsoP_203_gaussian.com
 Output=01-IsoP_203_gaussian.log
 Initial command:
 /opt/gaussian/g16_legacy/l1.exe "/scratch-local/jramos/2661345/Gau-29821.inp" -scrdir="/scratch-local/jramos/2661345/"
 Entering Link 1 = /opt/gaussian/g16_legacy/l1.exe PID=     29827.
  
 Copyright (c) 1988,1990,1992,1993,1995,1998,2003,2009,2016,
            Gaussian, Inc.  All Rights Reserved.
  
 This is part of the Gaussian(R) 16 program.  It is based on
 the Gaussian(R) 09 system (copyright 2009, Gaussian, Inc.),
 the Gaussian(R) 03 system (copyright 2003, Gaussian, Inc.),
 the Gaussian(R) 98 system (copyright 1998, Gaussian, Inc.),
 the Gaussian(R) 94 system (copyright 1995, Gaussian, Inc.),
 the Gaussian 92(TM) system (copyright 1992, Gaussian, Inc.),
 the Gaussian 90(TM) system (copyright 1990, Gaussian, Inc.),
 the Gaussian 88(TM) system (copyright 1988, Gaussian, Inc.),
 the Gaussian 86(TM) system (copyright 1986, Carnegie Mellon
 University), and the Gaussian 82(TM) system (copyright 1983,
 Carnegie Mellon University). Gaussian is a federally registered
 trademark of Gaussian, Inc.
  
 This software contains proprietary and confidential information,
 including trade secrets, belonging to Gaussian, Inc.
  
 This software is provided under written license and may be
 used, copied, transmitted, or stored only in accord with that
 written license.
  
 The following legend is applicable only to US Government
 contracts under FAR:
  
                    RESTRICTED RIGHTS LEGEND
  
 Use, reproduction and disclosure by the US Government is
 subject to restrictions as set forth in subparagraphs (a)
 and (c) of the Commercial Computer Software - Restricted
 Rights clause in FAR 52.227-19.
  
 Gaussian, Inc.
 340 Quinnipiac St., Bldg. 40, Wallingford CT 06492
  
  
 ---------------------------------------------------------------
 Warning -- This program may not be used in any manner that
 competes with the business of Gaussian, Inc. or will provide
 assistance to any competitor of Gaussian, Inc.  The licensee
 of this program is prohibited from giving any competitor of
 Gaussian, Inc. access to this program.  By using this program,
 the user acknowledges that Gaussian, Inc. is engaged in the
 business of creating and licensing software in the field of
 computational chemistry and represents and warrants to the
 licensee that it is not a competitor of Gaussian, Inc. and that
 it will not use this program in any manner prohibited above.
 ---------------------------------------------------------------
  

 Cite this work as:
 Gaussian 16, Revision A.03,
 M. J. Frisch, G. W. Trucks, H. B. Schlegel, G. E. Scuseria, 
 M. A. Robb, J. R. Cheeseman, G. Scalmani, V. Barone, 
 G. A. Petersson, H. Nakatsuji, X. Li, M. Caricato, A. V. Marenich, 
 J. Bloino, B. G. Janesko, R. Gomperts, B. Mennucci, H. P. Hratchian, 
 J. V. Ortiz, A. F. Izmaylov, J. L. Sonnenberg, D. Williams-Young, 
 F. Ding, F. Lipparini, F. Egidi, J. Goings, B. Peng, A. Petrone, 
 T. Henderson, D. Ranasinghe, V. G. Zakrzewski, J. Gao, N. Rega, 
 G. Zheng, W. Liang, M. Hada, M. Ehara, K. Toyota, R. Fukuda, 
 J. Hasegawa, M. Ishida, T. Nakajima, Y. Honda, O. Kitao, H. Nakai, 
 T. Vreven, K. Throssell, J. A. Montgomery, Jr., J. E. Peralta, 
 F. Ogliaro, M. J. Bearpark, J. J. Heyd, E. N. Brothers, K. N. Kudin, 
 V. N. Staroverov, T. A. Keith, R. Kobayashi, J. Normand, 
 K. Raghavachari, A. P. Rendell, J. C. Burant, S. S. Iyengar, 
 J. Tomasi, M. Cossi, J. M. Millam, M. Klene, C. Adamo, R. Cammi, 
 J. W. Ochterski, R. L. Martin, K. Morokuma, O. Farkas, 
 J. B. Foresman, and D. J. Fox, Gaussian, Inc., Wallingford CT, 2016.
 
 ******************************************
 Gaussian 16:  EM64L-G16RevA.03 25-Dec-2016
                17-Sep-2021 
 ******************************************
 %chk=01-IsoP_203_gaussian.chk
 %nproc=1
 Will use up to    1 processors via shared memory.
 %mem=4000Mb
 ---------------------
 #p opt mp2/6-31g(d,p)
 ---------------------
 1/18=20,19=15,38=1/1,3;
 2/9=110,12=2,17=6,18=5,40=1/2;
 3/5=1,6=6,7=101,11=9,25=1,30=1,71=1/1,2,3;
 4//1;
 5/5=2,38=5/2;
 8/6=4,10=2/1;
 9/15=2,16=-3/6;
 10/5=1/2;
 6/7=2,8=2,9=2,10=2/1;
 7/12=2/1,2,3,16;
 1/18=20,19=15/3(2);
 2/9=110/2;
 99//99;
 2/9=110/2;
 3/5=1,6=6,7=101,11=9,25=1,30=1,71=1/1,2,3;
 4/5=5,16=3,69=1/1;
 5/5=2,38=5/2;
 8/6=4,10=2/1;
 9/15=2,16=-3/6;
 10/5=1/2;
 7/12=2/1,2,3,16;
 1/18=20,19=15/3(-8);
 2/9=110/2;
 6/7=2,8=2,9=2,10=2/1;
 99//99;
 Leave Link    1 at Fri Sep 17 13:32:35 2021, MaxMem=   524288000 cpu:               0.0 elap:               0.2
 (Enter /opt/gaussian/g16_legacy/l101.exe)
 -------------------------------------------------
 Conformer number 203. Energy MM = 23.242 kcal/mol
 -------------------------------------------------
 Symbolic Z-matrix:
 Charge =  0 Multiplicity = 1
 C                     0.8605    0.2283   -0.8099 
 H                     0.8386    0.5466   -1.8609 
 H                     0.6599   -0.8494   -0.8385 
 C                     2.2381    0.4988   -0.2409 
 C                     2.8979    1.7595   -0.7376 
 H                     2.2947    2.6351   -0.4781 
 H                     3.0119    1.7248   -1.826 
 H                     3.8936    1.9046   -0.3053 
 C                     2.875    -0.3112    0.6279 
 H                     3.8757   -0.036     0.9597 
 C                     2.3606   -1.577     1.2374 
 H                     2.9451   -2.4281    0.8751 
 H                     2.4692   -1.5278    2.3257 
 H                     1.3061   -1.7661    1.0245 
 C                    -2.3964   -1.0478    1.0696 
 H                    -2.6286   -2.0861    0.8092 
 H                    -1.3867   -1.0453    1.4861 
 H                    -3.0871   -0.7275    1.8564 
 C                    -2.5465   -0.1668   -0.14 
 C                    -3.8757   -0.2934   -0.8376 
 H                    -3.9529    0.3658   -1.7087 
 H                    -4.689    -0.0341   -0.1519 
 H                    -4.0262   -1.3211   -1.1842 
 C                    -1.6015    0.6712   -0.6091 
 H                    -1.8188    1.2473   -1.5087 
 C                    -0.2419    0.9436   -0.0225 
 H                    -0.0784    2.0285   -0.0467 
 H                    -0.1972    0.6638    1.0351 
 
 ITRead=  0  0  0  0  0  0  0  0  0  0  0  0  0  0  0  0  0  0  0  0
 ITRead=  0  0  0  0  0  0  0  0
 MicOpt= -1 -1 -1 -1 -1 -1 -1 -1 -1 -1 -1 -1 -1 -1 -1 -1 -1 -1 -1 -1
 MicOpt= -1 -1 -1 -1 -1 -1 -1 -1
 NAtoms=     28 NQM=       28 NQMF=       0 NMMI=      0 NMMIF=      0
                NMic=       0 NMicF=      0.
                    Isotopes and Nuclear Properties:
 (Nuclear quadrupole moments (NQMom) in fm**2, nuclear magnetic moments (NMagM)
  in nuclear magnetons)

  Atom         1           2           3           4           5           6           7           8           9          10
 IAtWgt=          12           1           1          12          12           1           1           1          12           1
 AtmWgt=  12.0000000   1.0078250   1.0078250  12.0000000  12.0000000   1.0078250   1.0078250   1.0078250  12.0000000   1.0078250
 NucSpn=           0           1           1           0           0           1           1           1           0           1
 AtZEff=  -0.0000000  -0.0000000  -0.0000000  -0.0000000  -0.0000000  -0.0000000  -0.0000000  -0.0000000  -0.0000000  -0.0000000
 NQMom=    0.0000000   0.0000000   0.0000000   0.0000000   0.0000000   0.0000000   0.0000000   0.0000000   0.0000000   0.0000000
 NMagM=    0.0000000   2.7928460   2.7928460   0.0000000   0.0000000   2.7928460   2.7928460   2.7928460   0.0000000   2.7928460
 AtZNuc=   6.0000000   1.0000000   1.0000000   6.0000000   6.0000000   1.0000000   1.0000000   1.0000000   6.0000000   1.0000000

  Atom        11          12          13          14          15          16          17          18          19          20
 IAtWgt=          12           1           1           1          12           1           1           1          12          12
 AtmWgt=  12.0000000   1.0078250   1.0078250   1.0078250  12.0000000   1.0078250   1.0078250   1.0078250  12.0000000  12.0000000
 NucSpn=           0           1           1           1           0           1           1           1           0           0
 AtZEff=  -0.0000000  -0.0000000  -0.0000000  -0.0000000  -0.0000000  -0.0000000  -0.0000000  -0.0000000  -0.0000000  -0.0000000
 NQMom=    0.0000000   0.0000000   0.0000000   0.0000000   0.0000000   0.0000000   0.0000000   0.0000000   0.0000000   0.0000000
 NMagM=    0.0000000   2.7928460   2.7928460   2.7928460   0.0000000   2.7928460   2.7928460   2.7928460   0.0000000   0.0000000
 AtZNuc=   6.0000000   1.0000000   1.0000000   1.0000000   6.0000000   1.0000000   1.0000000   1.0000000   6.0000000   6.0000000

  Atom        21          22          23          24          25          26          27          28
 IAtWgt=           1           1           1          12           1          12           1           1
 AtmWgt=   1.0078250   1.0078250   1.0078250  12.0000000   1.0078250  12.0000000   1.0078250   1.0078250
 NucSpn=           1           1           1           0           1           0           1           1
 AtZEff=  -0.0000000  -0.0000000  -0.0000000  -0.0000000  -0.0000000  -0.0000000  -0.0000000  -0.0000000
 NQMom=    0.0000000   0.0000000   0.0000000   0.0000000   0.0000000   0.0000000   0.0000000   0.0000000
 NMagM=    2.7928460   2.7928460   2.7928460   0.0000000   2.7928460   0.0000000   2.7928460   2.7928460
 AtZNuc=   1.0000000   1.0000000   1.0000000   6.0000000   1.0000000   6.0000000   1.0000000   1.0000000
 Leave Link  101 at Fri Sep 17 13:32:36 2021, MaxMem=   524288000 cpu:               0.3 elap:               0.4
 (Enter /opt/gaussian/g16_legacy/l103.exe)

 GradGradGradGradGradGradGradGradGradGradGradGradGradGradGradGradGradGrad
 Berny optimization.
 Initialization pass.
                           ----------------------------
                           !    Initial Parameters    !
                           ! (Angstroms and Degrees)  !
 --------------------------                            --------------------------
 ! Name  Definition              Value          Derivative Info.                !
 --------------------------------------------------------------------------------
 ! R1    R(1,2)                  1.0984         estimate D2E/DX2                !
 ! R2    R(1,3)                  1.0966         estimate D2E/DX2                !
 ! R3    R(1,4)                  1.5148         estimate D2E/DX2                !
 ! R4    R(1,26)                 1.532          estimate D2E/DX2                !
 ! R5    R(4,5)                  1.5071         estimate D2E/DX2                !
 ! R6    R(4,9)                  1.3478         estimate D2E/DX2                !
 ! R7    R(5,6)                  1.0945         estimate D2E/DX2                !
 ! R8    R(5,7)                  1.0949         estimate D2E/DX2                !
 ! R9    R(5,8)                  1.0952         estimate D2E/DX2                !
 ! R10   R(9,10)                 1.0896         estimate D2E/DX2                !
 ! R11   R(9,11)                 1.4961         estimate D2E/DX2                !
 ! R12   R(11,12)                1.0942         estimate D2E/DX2                !
 ! R13   R(11,13)                1.0948         estimate D2E/DX2                !
 ! R14   R(11,14)                1.0923         estimate D2E/DX2                !
 ! R15   R(15,16)                1.0954         estimate D2E/DX2                !
 ! R16   R(15,17)                1.0922         estimate D2E/DX2                !
 ! R17   R(15,18)                1.0949         estimate D2E/DX2                !
 ! R18   R(15,19)                1.5039         estimate D2E/DX2                !
 ! R19   R(19,20)                1.5065         estimate D2E/DX2                !
 ! R20   R(19,24)                1.3473         estimate D2E/DX2                !
 ! R21   R(20,21)                1.0951         estimate D2E/DX2                !
 ! R22   R(20,22)                1.0949         estimate D2E/DX2                !
 ! R23   R(20,23)                1.095          estimate D2E/DX2                !
 ! R24   R(24,25)                1.0901         estimate D2E/DX2                !
 ! R25   R(24,26)                1.5056         estimate D2E/DX2                !
 ! R26   R(26,27)                1.0974         estimate D2E/DX2                !
 ! R27   R(26,28)                1.0949         estimate D2E/DX2                !
 ! A1    A(2,1,3)              104.8448         estimate D2E/DX2                !
 ! A2    A(2,1,4)              109.0145         estimate D2E/DX2                !
 ! A3    A(2,1,26)             110.0084         estimate D2E/DX2                !
 ! A4    A(3,1,4)              110.5882         estimate D2E/DX2                !
 ! A5    A(3,1,26)             109.916          estimate D2E/DX2                !
 ! A6    A(4,1,26)             112.208          estimate D2E/DX2                !
 ! A7    A(1,4,5)              115.0689         estimate D2E/DX2                !
 ! A8    A(1,4,9)              124.3712         estimate D2E/DX2                !
 ! A9    A(5,4,9)              120.5496         estimate D2E/DX2                !
 ! A10   A(4,5,6)              110.4747         estimate D2E/DX2                !
 ! A11   A(4,5,7)              110.2846         estimate D2E/DX2                !
 ! A12   A(4,5,8)              112.2574         estimate D2E/DX2                !
 ! A13   A(6,5,7)              108.568          estimate D2E/DX2                !
 ! A14   A(6,5,8)              107.5474         estimate D2E/DX2                !
 ! A15   A(7,5,8)              107.5736         estimate D2E/DX2                !
 ! A16   A(4,9,10)             118.5873         estimate D2E/DX2                !
 ! A17   A(4,9,11)             127.4882         estimate D2E/DX2                !
 ! A18   A(10,9,11)            113.9165         estimate D2E/DX2                !
 ! A19   A(9,11,12)            109.8485         estimate D2E/DX2                !
 ! A20   A(9,11,13)            109.4412         estimate D2E/DX2                !
 ! A21   A(9,11,14)            113.5159         estimate D2E/DX2                !
 ! A22   A(12,11,13)           108.126          estimate D2E/DX2                !
 ! A23   A(12,11,14)           108.4519         estimate D2E/DX2                !
 ! A24   A(13,11,14)           107.2956         estimate D2E/DX2                !
 ! A25   A(16,15,17)           106.7857         estimate D2E/DX2                !
 ! A26   A(16,15,18)           108.3258         estimate D2E/DX2                !
 ! A27   A(16,15,19)           110.055          estimate D2E/DX2                !
 ! A28   A(17,15,18)           107.9679         estimate D2E/DX2                !
 ! A29   A(17,15,19)           113.4296         estimate D2E/DX2                !
 ! A30   A(18,15,19)           110.0995         estimate D2E/DX2                !
 ! A31   A(15,19,20)           114.2849         estimate D2E/DX2                !
 ! A32   A(15,19,24)           125.0557         estimate D2E/DX2                !
 ! A33   A(20,19,24)           120.6567         estimate D2E/DX2                !
 ! A34   A(19,20,21)           112.3307         estimate D2E/DX2                !
 ! A35   A(19,20,22)           110.2112         estimate D2E/DX2                !
 ! A36   A(19,20,23)           110.2874         estimate D2E/DX2                !
 ! A37   A(21,20,22)           107.6514         estimate D2E/DX2                !
 ! A38   A(21,20,23)           107.667          estimate D2E/DX2                !
 ! A39   A(22,20,23)           108.5667         estimate D2E/DX2                !
 ! A40   A(19,24,25)           118.4372         estimate D2E/DX2                !
 ! A41   A(19,24,26)           127.6075         estimate D2E/DX2                !
 ! A42   A(25,24,26)           113.9481         estimate D2E/DX2                !
 ! A43   A(1,26,24)            111.413          estimate D2E/DX2                !
 ! A44   A(1,26,27)            110.0625         estimate D2E/DX2                !
 ! A45   A(1,26,28)            110.3511         estimate D2E/DX2                !
 ! A46   A(24,26,27)           107.7467         estimate D2E/DX2                !
 ! A47   A(24,26,28)           111.529          estimate D2E/DX2                !
 ! A48   A(27,26,28)           105.5365         estimate D2E/DX2                !
 ! D1    D(2,1,4,5)             36.6476         estimate D2E/DX2                !
 ! D2    D(2,1,4,9)           -142.1827         estimate D2E/DX2                !
 ! D3    D(3,1,4,5)            151.4143         estimate D2E/DX2                !
 ! D4    D(3,1,4,9)            -27.4159         estimate D2E/DX2                !
 ! D5    D(26,1,4,5)           -85.4655         estimate D2E/DX2                !
 ! D6    D(26,1,4,9)            95.7042         estimate D2E/DX2                !
 ! D7    D(2,1,26,24)           58.0199         estimate D2E/DX2                !
 ! D8    D(2,1,26,27)          -61.4376         estimate D2E/DX2                !
 ! D9    D(2,1,26,28)         -177.5162         estimate D2E/DX2                !
 ! D10   D(3,1,26,24)          -56.9368         estimate D2E/DX2                !
 ! D11   D(3,1,26,27)         -176.3943         estimate D2E/DX2                !
 ! D12   D(3,1,26,28)           67.5271         estimate D2E/DX2                !
 ! D13   D(4,1,26,24)          179.5656         estimate D2E/DX2                !
 ! D14   D(4,1,26,27)           60.1081         estimate D2E/DX2                !
 ! D15   D(4,1,26,28)          -55.9705         estimate D2E/DX2                !
 ! D16   D(1,4,5,6)             60.528          estimate D2E/DX2                !
 ! D17   D(1,4,5,7)            -59.4972         estimate D2E/DX2                !
 ! D18   D(1,4,5,8)           -179.4359         estimate D2E/DX2                !
 ! D19   D(9,4,5,6)           -120.5931         estimate D2E/DX2                !
 ! D20   D(9,4,5,7)            119.3817         estimate D2E/DX2                !
 ! D21   D(9,4,5,8)             -0.557          estimate D2E/DX2                !
 ! D22   D(1,4,9,10)           178.6019         estimate D2E/DX2                !
 ! D23   D(1,4,9,11)            -2.4875         estimate D2E/DX2                !
 ! D24   D(5,4,9,10)            -0.1677         estimate D2E/DX2                !
 ! D25   D(5,4,9,11)           178.7428         estimate D2E/DX2                !
 ! D26   D(4,9,11,12)          113.685          estimate D2E/DX2                !
 ! D27   D(4,9,11,13)         -127.7492         estimate D2E/DX2                !
 ! D28   D(4,9,11,14)           -7.9196         estimate D2E/DX2                !
 ! D29   D(10,9,11,12)         -67.3615         estimate D2E/DX2                !
 ! D30   D(10,9,11,13)          51.2043         estimate D2E/DX2                !
 ! D31   D(10,9,11,14)         171.0339         estimate D2E/DX2                !
 ! D32   D(16,15,19,20)         52.7881         estimate D2E/DX2                !
 ! D33   D(16,15,19,24)       -126.6045         estimate D2E/DX2                !
 ! D34   D(17,15,19,20)        172.343          estimate D2E/DX2                !
 ! D35   D(17,15,19,24)         -7.0495         estimate D2E/DX2                !
 ! D36   D(18,15,19,20)        -66.5534         estimate D2E/DX2                !
 ! D37   D(18,15,19,24)        114.0541         estimate D2E/DX2                !
 ! D38   D(15,19,20,21)        179.631          estimate D2E/DX2                !
 ! D39   D(15,19,20,22)         59.5955         estimate D2E/DX2                !
 ! D40   D(15,19,20,23)        -60.2612         estimate D2E/DX2                !
 ! D41   D(24,19,20,21)         -0.947          estimate D2E/DX2                !
 ! D42   D(24,19,20,22)       -120.9826         estimate D2E/DX2                !
 ! D43   D(24,19,20,23)        119.1607         estimate D2E/DX2                !
 ! D44   D(15,19,24,25)        178.8265         estimate D2E/DX2                !
 ! D45   D(15,19,24,26)         -2.2145         estimate D2E/DX2                !
 ! D46   D(20,19,24,25)         -0.5298         estimate D2E/DX2                !
 ! D47   D(20,19,24,26)        178.4292         estimate D2E/DX2                !
 ! D48   D(19,24,26,1)         103.3634         estimate D2E/DX2                !
 ! D49   D(19,24,26,27)       -135.813          estimate D2E/DX2                !
 ! D50   D(19,24,26,28)        -20.4354         estimate D2E/DX2                !
 ! D51   D(25,24,26,1)         -77.6382         estimate D2E/DX2                !
 ! D52   D(25,24,26,27)         43.1854         estimate D2E/DX2                !
 ! D53   D(25,24,26,28)        158.563          estimate D2E/DX2                !
 --------------------------------------------------------------------------------
 Trust Radius=3.00D-01 FncErr=1.00D-07 GrdErr=1.00D-07 EigMax=2.50D+02 EigMin=1.00D-04
 Number of steps in this run=    138 maximum allowed number of steps=    168.
 GradGradGradGradGradGradGradGradGradGradGradGradGradGradGradGradGradGrad

 Leave Link  103 at Fri Sep 17 13:32:36 2021, MaxMem=   524288000 cpu:               0.1 elap:               0.1
 (Enter /opt/gaussian/g16_legacy/l202.exe)
                          Input orientation:                          
 ---------------------------------------------------------------------
 Center     Atomic      Atomic             Coordinates (Angstroms)
 Number     Number       Type             X           Y           Z
 ---------------------------------------------------------------------
      1          6           0        0.860500    0.228300   -0.809900
      2          1           0        0.838600    0.546600   -1.860900
      3          1           0        0.659900   -0.849400   -0.838500
      4          6           0        2.238100    0.498800   -0.240900
      5          6           0        2.897900    1.759500   -0.737600
      6          1           0        2.294700    2.635100   -0.478100
      7          1           0        3.011900    1.724800   -1.826000
      8          1           0        3.893600    1.904600   -0.305300
      9          6           0        2.875000   -0.311200    0.627900
     10          1           0        3.875700   -0.036000    0.959700
     11          6           0        2.360600   -1.577000    1.237400
     12          1           0        2.945100   -2.428100    0.875100
     13          1           0        2.469200   -1.527800    2.325700
     14          1           0        1.306100   -1.766100    1.024500
     15          6           0       -2.396400   -1.047800    1.069600
     16          1           0       -2.628600   -2.086100    0.809200
     17          1           0       -1.386700   -1.045300    1.486100
     18          1           0       -3.087100   -0.727500    1.856400
     19          6           0       -2.546500   -0.166800   -0.140000
     20          6           0       -3.875700   -0.293400   -0.837600
     21          1           0       -3.952900    0.365800   -1.708700
     22          1           0       -4.689000   -0.034100   -0.151900
     23          1           0       -4.026200   -1.321100   -1.184200
     24          6           0       -1.601500    0.671200   -0.609100
     25          1           0       -1.818800    1.247300   -1.508700
     26          6           0       -0.241900    0.943600   -0.022500
     27          1           0       -0.078400    2.028500   -0.046700
     28          1           0       -0.197200    0.663800    1.035100
 ---------------------------------------------------------------------
                    Distance matrix (angstroms):
                    1          2          3          4          5
     1  C    0.000000
     2  H    1.098360   0.000000
     3  H    1.096584   1.739555   0.000000
     4  C    1.514831   2.141328   2.159973   0.000000
     5  C    2.549667   2.640766   3.438777   1.507120   0.000000
     6  H    2.821295   2.897274   3.865773   2.150173   1.094471
     7  H    2.810782   2.472369   3.624026   2.148112   1.094904
     8  H    3.502042   3.687422   4.280845   2.172810   1.095151
     9  C    2.533089   3.328193   2.710472   1.347796   2.480507
    10  H    3.506105   4.185592   3.773130   2.099806   2.657205
    11  C    3.114618   4.052854   2.780493   2.551337   3.914275
    12  H    3.773757   4.557618   3.263565   3.211238   4.487652
    13  H    3.937485   4.948698   3.707554   3.278407   4.513749
    14  H    2.746127   3.727287   2.174553   2.756743   4.250727
    15  C    3.970938   4.647060   3.608487   5.058456   6.259115
    16  H    4.489070   5.107056   3.880538   5.609740   6.908215
    17  H    3.455949   4.323021   3.103339   4.301854   5.582969
    18  H    4.858627   5.554527   4.617072   5.853224   6.980991
    19  C    3.494641   3.863850   3.351842   4.831729   5.805967
    20  C    4.764927   4.896669   4.569552   6.193721   7.078563
    21  H    4.898527   4.797325   4.848905   6.364009   7.058250
    22  H    5.594530   5.814831   5.454069   6.948138   7.817998
    23  H    5.140095   5.254760   4.722451   6.591154   7.591621
    24  C    2.509567   2.745290   2.734736   3.861065   4.630930
    25  H    2.950480   2.770704   3.315007   4.315786   4.806683
    26  C    1.531972   2.169056   2.166552   2.529021   3.321958
    27  H    2.169038   2.515599   3.074791   2.782781   3.067257
    28  H    2.170810   3.077894   2.556320   2.754285   3.731309
                    6          7          8          9         10
     6  H    0.000000
     7  H    1.777598   0.000000
     8  H    1.766344   1.766989   0.000000
     9  C    3.200104   3.191499   2.611164   0.000000
    10  H    3.420761   3.406859   2.316565   1.089599   0.000000
    11  C    4.548524   4.550878   4.105064   1.496111   2.178836
    12  H    5.281114   4.954491   4.589693   2.132437   2.568135
    13  H    5.022099   5.301938   4.553290   2.127749   2.463669
    14  H    4.754545   4.818868   4.683755   2.176114   3.098433
    15  C    6.161619   6.732126   7.083157   5.340912   6.354137
    16  H    6.941596   7.299485   7.727023   5.785564   6.821399
    17  H    5.563823   6.163696   6.308137   4.408798   5.384110
    18  H    6.761711   7.534696   7.767308   6.101570   7.054277
    19  C    5.603764   6.108728   6.767046   5.477516   6.516986
    20  C    6.839531   7.244936   8.091759   6.907963   7.961202
    21  H    6.759926   7.097118   8.118189   7.248327   8.280627
    22  H    7.483522   8.074664   8.800177   7.609137   8.636535
    23  H    7.490252   7.695730   8.596560   7.206259   8.287811
    24  C    4.365139   4.886141   5.640008   4.747034   5.741166
    25  H    4.461951   4.864602   5.874668   5.387554   6.337759
    26  C    3.082707   3.801329   4.255098   3.422369   4.344993
    27  H    2.487101   3.578840   3.982337   3.827774   4.572735
    28  H    3.519285   4.428311   4.480056   3.248823   4.133270
                   11         12         13         14         15
    11  C    0.000000
    12  H    1.094200   0.000000
    13  H    1.094811   1.772360   0.000000
    14  H    1.092271   1.773946   1.761451   0.000000
    15  C    4.789286   5.520388   5.047995   3.771803   0.000000
    16  H    5.033354   5.584571   5.347807   3.953558   1.095350
    17  H    3.792995   4.588022   3.975638   2.825562   1.092233
    18  H    5.548175   6.343692   5.633222   4.590311   1.094857
    19  C    5.288244   6.025079   5.752325   4.330860   1.503936
    20  C    6.696618   7.349394   7.196386   5.699764   2.528806
    21  H    7.232860   7.878090   7.816999   6.298608   3.484237
    22  H    7.348983   8.066316   7.720717   6.350194   2.788488
    23  H    6.835265   7.352903   7.385956   5.788765   2.794737
    24  C    4.915506   5.699130   5.478983   4.130765   2.530783
    25  H    5.743267   6.471925   6.386763   5.026200   3.499820
    26  C    3.835854   4.725570   4.355677   3.291654   3.130531
    27  H    4.538421   5.463749   4.976527   4.178911   4.010346
    28  H    3.406531   4.411292   3.684895   2.857348   2.786978
                   16         17         18         19         20
    16  H    0.000000
    17  H    1.756068   0.000000
    18  H    1.775569   1.769033   0.000000
    19  C    2.142763   2.181994   2.142953   0.000000
    20  C    2.735138   3.487127   2.840417   1.506468   0.000000
    21  H    3.755716   4.333974   3.828166   2.173118   1.095135
    22  H    3.062624   3.822402   2.660856   2.146639   1.094933
    23  H    2.551892   3.764775   3.237208   2.147621   1.094965
    24  C    3.266376   2.717053   3.200322   1.347340   2.480857
    25  H    4.140047   3.796255   4.102721   2.098229   2.656119
    26  C    3.945522   2.746300   3.797105   2.560854   3.924164
    27  H    4.915894   3.675510   4.502177   3.304476   4.520645
    28  H    3.677593   2.130571   3.310857   2.754989   4.237287
                   21         22         23         24         25
    21  H    0.000000
    22  H    1.767877   0.000000
    23  H    1.768079   1.778009   0.000000
    24  C    2.613708   3.199865   3.190481   0.000000
    25  H    2.317634   3.423586   3.402145   1.090133   0.000000
    26  C    4.116873   4.555144   4.560629   1.505594   2.188067
    27  H    4.531949   5.052031   5.300835   2.116221   2.403479
    28  H    4.660743   4.698117   4.850398   2.162292   3.072617
                   26         27         28
    26  C    0.000000
    27  H    1.097418   0.000000
    28  H    1.094899   1.745512   0.000000
 Stoichiometry    C10H18
 Framework group  C1[X(C10H18)]
 Deg. of freedom    78
 Full point group                 C1      NOp   1
 Largest Abelian subgroup         C1      NOp   1
 Largest concise Abelian subgroup C1      NOp   1
                         Standard orientation:                         
 ---------------------------------------------------------------------
 Center     Atomic      Atomic             Coordinates (Angstroms)
 Number     Number       Type             X           Y           Z
 ---------------------------------------------------------------------
      1          6           0        0.793800   -0.586470    0.589182
      2          1           0        0.745947   -1.484302    1.220058
      3          1           0        0.484656    0.235319    1.246135
      4          6           0        2.220935   -0.386990    0.122059
      5          6           0        2.975609   -1.654991   -0.184619
      6          1           0        2.478709   -2.212207   -0.984911
      7          1           0        3.025224   -2.291724    0.704720
      8          1           0        4.003210   -1.458185   -0.508131
      9          6           0        2.820256    0.813873   -0.001623
     10          1           0        3.860343    0.846682   -0.324688
     11          6           0        2.215744    2.161853    0.234728
     12          1           0        2.690849    2.635720    1.099019
     13          1           0        2.388712    2.797220   -0.639916
     14          1           0        1.137435    2.131921    0.406216
     15          6           0       -2.465974    1.425920   -0.456050
     16          1           0       -2.815360    2.072726    0.355962
     17          1           0       -1.439667    1.725918   -0.678914
     18          1           0       -3.076454    1.626149   -1.342580
     19          6           0       -2.593405   -0.018277   -0.056200
     20          6           0       -3.965108   -0.407926    0.429651
     21          1           0       -4.023700   -1.466049    0.705807
     22          1           0       -4.709096   -0.227404   -0.353146
     23          1           0       -4.237032    0.181244    1.311630
     24          6           0       -1.596360   -0.923553   -0.097430
     25          1           0       -1.804054   -1.940139    0.236946
     26          6           0       -0.185942   -0.715565   -0.581450
     27          1           0        0.084152   -1.577174   -1.205152
     28          1           0       -0.111207    0.157049   -1.238537
 ---------------------------------------------------------------------
 Rotational constants (GHZ):           2.2181727           0.5802306           0.4854247
 Leave Link  202 at Fri Sep 17 13:32:36 2021, MaxMem=   524288000 cpu:               0.1 elap:               0.2
 (Enter /opt/gaussian/g16_legacy/l301.exe)
 Standard basis: 6-31G(d,p) (6D, 7F)
 Ernie: Thresh=  0.10000D-02 Tol=  0.10000D-05 Strict=F.
 There are   240 symmetry adapted cartesian basis functions of A   symmetry.
 There are   240 symmetry adapted basis functions of A   symmetry.
   240 basis functions,   406 primitive gaussians,   240 cartesian basis functions
    39 alpha electrons       39 beta electrons
       nuclear repulsion energy       516.4380836347 Hartrees.
 IExCor=    0 DFT=F Ex=HF Corr=None ExCW=0 ScaHFX=  1.000000
 ScaDFX=  1.000000  1.000000  1.000000  1.000000 ScalE2=  1.000000  1.000000
 IRadAn=      5 IRanWt=     -1 IRanGd=            0 ICorTp=0 IEmpDi=  4
 NAtoms=   28 NActive=   28 NUniq=   28 SFac= 1.00D+00 NAtFMM=   60 NAOKFM=F Big=F
 Integral buffers will be    131072 words long.
 Raffenetti 1 integral format.
 Two-electron integral symmetry is turned on.
 Leave Link  301 at Fri Sep 17 13:32:37 2021, MaxMem=   524288000 cpu:               0.1 elap:               0.5
 (Enter /opt/gaussian/g16_legacy/l302.exe)
 NPDir=0 NMtPBC=     1 NCelOv=     1 NCel=       1 NClECP=     1 NCelD=      1
         NCelK=      1 NCelE2=     1 NClLst=     1 CellRange=     0.0.
 One-electron integrals computed using PRISM.
 One-electron integral symmetry used in STVInt
 NBasis=   240 RedAO= T EigKep=  2.10D-03  NBF=   240
 NBsUse=   240 1.00D-06 EigRej= -1.00D+00 NBFU=   240
 Leave Link  302 at Fri Sep 17 13:32:38 2021, MaxMem=   524288000 cpu:               0.3 elap:               0.8
 (Enter /opt/gaussian/g16_legacy/l303.exe)
 DipDrv:  MaxL=1.
 Leave Link  303 at Fri Sep 17 13:32:38 2021, MaxMem=   524288000 cpu:               0.1 elap:               0.3
 (Enter /opt/gaussian/g16_legacy/l401.exe)
 ExpMin= 1.61D-01 ExpMax= 3.05D+03 ExpMxC= 4.57D+02 IAcc=3 IRadAn=         5 AccDes= 0.00D+00
 Harris functional with IExCor=  205 and IRadAn=       5 diagonalized for initial guess.
 HarFok:  IExCor=  205 AccDes= 0.00D+00 IRadAn=         5 IDoV= 1 UseB2=F ITyADJ=14
 ICtDFT=  3500011 ScaDFX=  1.000000  1.000000  1.000000  1.000000
 FoFCou: FMM=F IPFlag=           0 FMFlag=      100000 FMFlg1=           0
         NFxFlg=           0 DoJE=T BraDBF=F KetDBF=T FulRan=T
         wScrn=  0.000000 ICntrl=       500 IOpCl=  0 I1Cent=   200000004 NGrid=           0
         NMat0=    1 NMatS0=      1 NMatT0=    0 NMatD0=    1 NMtDS0=    0 NMtDT0=    0
 Petite list used in FoFCou.
 Harris En= -390.109917650726    
 JPrj=0 DoOrth=F DoCkMO=F.
 Leave Link  401 at Fri Sep 17 13:32:50 2021, MaxMem=   524288000 cpu:              11.1 elap:              11.4
 (Enter /opt/gaussian/g16_legacy/l502.exe)
 Keep R1 ints in memory in canonical form, NReq=425198025.
 FoFCou: FMM=F IPFlag=           0 FMFlag=           0 FMFlg1=           0
         NFxFlg=           0 DoJE=F BraDBF=F KetDBF=F FulRan=T
         wScrn=  0.000000 ICntrl=       600 IOpCl=  0 I1Cent=           0 NGrid=           0
         NMat0=    1 NMatS0=  28920 NMatT0=    0 NMatD0=    1 NMtDS0=    0 NMtDT0=    0
 Symmetry not used in FoFCou.
 Two-electron integral symmetry not used.
 Closed shell SCF:
 Using DIIS extrapolation, IDIIS=  1040.
 NGot=   524288000 LenX=   105970886 LenY=   105912845
 Requested convergence on RMS density matrix=1.00D-08 within 128 cycles.
 Requested convergence on MAX density matrix=1.00D-06.
 Requested convergence on             energy=1.00D-06.
 No special actions if energy rises.

 Cycle   1  Pass 1  IDiag  1:
 E= -388.533173095079    
 DIIS: error= 5.21D-02 at cycle   1 NSaved=   1.
 NSaved= 1 IEnMin= 1 EnMin= -388.533173095079     IErMin= 1 ErrMin= 5.21D-02
 ErrMax= 5.21D-02  0.00D+00 EMaxC= 1.00D-01 BMatC= 8.07D-01 BMatP= 8.07D-01
 IDIUse=3 WtCom= 4.79D-01 WtEn= 5.21D-01
 Coeff-Com:  0.100D+01
 Coeff-En:   0.100D+01
 Coeff:      0.100D+01
 Gap=     0.508 Goal=   None    Shift=    0.000
 GapD=    0.508 DampG=2.000 DampE=0.500 DampFc=1.0000 IDamp=-1.
 RMSDP=4.00D-03 MaxDP=1.14D-01              OVMax= 1.33D-01

 Cycle   2  Pass 1  IDiag  1:
 E= -389.073878780854     Delta-E=       -0.540705685776 Rises=F Damp=F
 DIIS: error= 1.59D-02 at cycle   2 NSaved=   2.
 NSaved= 2 IEnMin= 2 EnMin= -389.073878780854     IErMin= 2 ErrMin= 1.59D-02
 ErrMax= 1.59D-02  0.00D+00 EMaxC= 1.00D-01 BMatC= 8.66D-02 BMatP= 8.07D-01
 IDIUse=3 WtCom= 8.41D-01 WtEn= 1.59D-01
 Coeff-Com:  0.183D+00 0.817D+00
 Coeff-En:   0.000D+00 0.100D+01
 Coeff:      0.154D+00 0.846D+00
 Gap=     0.549 Goal=   None    Shift=    0.000
 RMSDP=1.63D-03 MaxDP=3.04D-02 DE=-5.41D-01 OVMax= 4.61D-02

 Cycle   3  Pass 1  IDiag  1:
 E= -389.151441650905     Delta-E=       -0.077562870051 Rises=F Damp=F
 DIIS: error= 3.43D-03 at cycle   3 NSaved=   3.
 NSaved= 3 IEnMin= 3 EnMin= -389.151441650905     IErMin= 3 ErrMin= 3.43D-03
 ErrMax= 3.43D-03  0.00D+00 EMaxC= 1.00D-01 BMatC= 3.14D-03 BMatP= 8.66D-02
 IDIUse=3 WtCom= 9.66D-01 WtEn= 3.43D-02
 Coeff-Com: -0.245D-01 0.106D+00 0.919D+00
 Coeff-En:   0.000D+00 0.000D+00 0.100D+01
 Coeff:     -0.236D-01 0.102D+00 0.921D+00
 Gap=     0.499 Goal=   None    Shift=    0.000
 RMSDP=2.59D-04 MaxDP=7.14D-03 DE=-7.76D-02 OVMax= 1.01D-02

 Cycle   4  Pass 1  IDiag  1:
 E= -389.155067543432     Delta-E=       -0.003625892527 Rises=F Damp=F
 DIIS: error= 5.31D-04 at cycle   4 NSaved=   4.
 NSaved= 4 IEnMin= 4 EnMin= -389.155067543432     IErMin= 4 ErrMin= 5.31D-04
 ErrMax= 5.31D-04  0.00D+00 EMaxC= 1.00D-01 BMatC= 9.29D-05 BMatP= 3.14D-03
 IDIUse=3 WtCom= 9.95D-01 WtEn= 5.31D-03
 Coeff-Com: -0.424D-02-0.188D-02 0.951D-01 0.911D+00
 Coeff-En:   0.000D+00 0.000D+00 0.000D+00 0.100D+01
 Coeff:     -0.422D-02-0.187D-02 0.946D-01 0.912D+00
 Gap=     0.499 Goal=   None    Shift=    0.000
 RMSDP=7.39D-05 MaxDP=1.49D-03 DE=-3.63D-03 OVMax= 3.14D-03

 Cycle   5  Pass 1  IDiag  1:
 E= -389.155191904803     Delta-E=       -0.000124361370 Rises=F Damp=F
 DIIS: error= 1.63D-04 at cycle   5 NSaved=   5.
 NSaved= 5 IEnMin= 5 EnMin= -389.155191904803     IErMin= 5 ErrMin= 1.63D-04
 ErrMax= 1.63D-04  0.00D+00 EMaxC= 1.00D-01 BMatC= 1.60D-05 BMatP= 9.29D-05
 IDIUse=3 WtCom= 9.98D-01 WtEn= 1.63D-03
 Coeff-Com:  0.241D-02-0.152D-01-0.102D+00 0.176D+00 0.939D+00
 Coeff-En:   0.000D+00 0.000D+00 0.000D+00 0.000D+00 0.100D+01
 Coeff:      0.241D-02-0.152D-01-0.102D+00 0.175D+00 0.939D+00
 Gap=     0.500 Goal=   None    Shift=    0.000
 RMSDP=3.00D-05 MaxDP=6.56D-04 DE=-1.24D-04 OVMax= 9.23D-04

 Cycle   6  Pass 1  IDiag  1:
 E= -389.155213392375     Delta-E=       -0.000021487572 Rises=F Damp=F
 DIIS: error= 3.58D-05 at cycle   6 NSaved=   6.
 NSaved= 6 IEnMin= 6 EnMin= -389.155213392375     IErMin= 6 ErrMin= 3.58D-05
 ErrMax= 3.58D-05  0.00D+00 EMaxC= 1.00D-01 BMatC= 5.50D-07 BMatP= 1.60D-05
 IDIUse=1 WtCom= 1.00D+00 WtEn= 0.00D+00
 Coeff-Com:  0.720D-03-0.335D-02-0.261D-01-0.434D-02 0.177D+00 0.856D+00
 Coeff:      0.720D-03-0.335D-02-0.261D-01-0.434D-02 0.177D+00 0.856D+00
 Gap=     0.500 Goal=   None    Shift=    0.000
 RMSDP=5.30D-06 MaxDP=1.61D-04 DE=-2.15D-05 OVMax= 3.23D-04

 Cycle   7  Pass 1  IDiag  1:
 E= -389.155214233449     Delta-E=       -0.000000841075 Rises=F Damp=F
 DIIS: error= 1.03D-05 at cycle   7 NSaved=   7.
 NSaved= 7 IEnMin= 7 EnMin= -389.155214233449     IErMin= 7 ErrMin= 1.03D-05
 ErrMax= 1.03D-05  0.00D+00 EMaxC= 1.00D-01 BMatC= 5.44D-08 BMatP= 5.50D-07
 IDIUse=1 WtCom= 1.00D+00 WtEn= 0.00D+00
 Coeff-Com: -0.494D-04 0.463D-03 0.301D-02-0.105D-01-0.468D-01 0.145D+00
 Coeff-Com:  0.909D+00
 Coeff:     -0.494D-04 0.463D-03 0.301D-02-0.105D-01-0.468D-01 0.145D+00
 Coeff:      0.909D+00
 Gap=     0.500 Goal=   None    Shift=    0.000
 RMSDP=1.71D-06 MaxDP=4.09D-05 DE=-8.41D-07 OVMax= 8.41D-05

 Cycle   8  Pass 1  IDiag  1:
 E= -389.155214322338     Delta-E=       -0.000000088889 Rises=F Damp=F
 DIIS: error= 3.51D-06 at cycle   8 NSaved=   8.
 NSaved= 8 IEnMin= 8 EnMin= -389.155214322338     IErMin= 8 ErrMin= 3.51D-06
 ErrMax= 3.51D-06  0.00D+00 EMaxC= 1.00D-01 BMatC= 5.09D-09 BMatP= 5.44D-08
 IDIUse=1 WtCom= 1.00D+00 WtEn= 0.00D+00
 Coeff-Com: -0.581D-04 0.249D-03 0.208D-02 0.315D-02-0.171D-01-0.803D-01
 Coeff-Com: -0.123D+00 0.121D+01
 Coeff:     -0.581D-04 0.249D-03 0.208D-02 0.315D-02-0.171D-01-0.803D-01
 Coeff:     -0.123D+00 0.121D+01
 Gap=     0.500 Goal=   None    Shift=    0.000
 RMSDP=7.85D-07 MaxDP=2.40D-05 DE=-8.89D-08 OVMax= 5.81D-05

 Cycle   9  Pass 1  IDiag  1:
 E= -389.155214338193     Delta-E=       -0.000000015855 Rises=F Damp=F
 DIIS: error= 1.46D-06 at cycle   9 NSaved=   9.
 NSaved= 9 IEnMin= 9 EnMin= -389.155214338193     IErMin= 9 ErrMin= 1.46D-06
 ErrMax= 1.46D-06  0.00D+00 EMaxC= 1.00D-01 BMatC= 7.38D-10 BMatP= 5.09D-09
 IDIUse=1 WtCom= 1.00D+00 WtEn= 0.00D+00
 Coeff-Com:  0.927D-05-0.689D-04-0.479D-03 0.144D-02 0.385D-02 0.798D-04
 Coeff-Com: -0.865D-01-0.120D+00 0.120D+01
 Coeff:      0.927D-05-0.689D-04-0.479D-03 0.144D-02 0.385D-02 0.798D-04
 Coeff:     -0.865D-01-0.120D+00 0.120D+01
 Gap=     0.500 Goal=   None    Shift=    0.000
 RMSDP=2.99D-07 MaxDP=1.24D-05 DE=-1.59D-08 OVMax= 2.71D-05

 Cycle  10  Pass 1  IDiag  1:
 E= -389.155214340606     Delta-E=       -0.000000002413 Rises=F Damp=F
 DIIS: error= 3.97D-07 at cycle  10 NSaved=  10.
 NSaved=10 IEnMin=10 EnMin= -389.155214340606     IErMin=10 ErrMin= 3.97D-07
 ErrMax= 3.97D-07  0.00D+00 EMaxC= 1.00D-01 BMatC= 1.21D-10 BMatP= 7.38D-10
 IDIUse=1 WtCom= 1.00D+00 WtEn= 0.00D+00
 Coeff-Com:  0.952D-05-0.464D-04-0.369D-03-0.135D-03 0.233D-02 0.142D-01
 Coeff-Com:  0.594D-02-0.211D+00 0.143D+00 0.105D+01
 Coeff:      0.952D-05-0.464D-04-0.369D-03-0.135D-03 0.233D-02 0.142D-01
 Coeff:      0.594D-02-0.211D+00 0.143D+00 0.105D+01
 Gap=     0.500 Goal=   None    Shift=    0.000
 RMSDP=1.24D-07 MaxDP=3.06D-06 DE=-2.41D-09 OVMax= 9.87D-06

 Cycle  11  Pass 1  IDiag  1:
 E= -389.155214340924     Delta-E=       -0.000000000319 Rises=F Damp=F
 DIIS: error= 1.55D-07 at cycle  11 NSaved=  11.
 NSaved=11 IEnMin=11 EnMin= -389.155214340924     IErMin=11 ErrMin= 1.55D-07
 ErrMax= 1.55D-07  0.00D+00 EMaxC= 1.00D-01 BMatC= 9.54D-12 BMatP= 1.21D-10
 IDIUse=1 WtCom= 1.00D+00 WtEn= 0.00D+00
 Coeff-Com:  0.395D-06 0.832D-06 0.958D-06-0.149D-03-0.305D-03 0.278D-02
 Coeff-Com:  0.110D-01-0.153D-01-0.107D+00 0.164D+00 0.945D+00
 Coeff:      0.395D-06 0.832D-06 0.958D-06-0.149D-03-0.305D-03 0.278D-02
 Coeff:      0.110D-01-0.153D-01-0.107D+00 0.164D+00 0.945D+00
 Gap=     0.500 Goal=   None    Shift=    0.000
 RMSDP=2.77D-08 MaxDP=1.16D-06 DE=-3.19D-10 OVMax= 2.51D-06

 Cycle  12  Pass 1  IDiag  1:
 E= -389.155214340955     Delta-E=       -0.000000000030 Rises=F Damp=F
 DIIS: error= 3.64D-08 at cycle  12 NSaved=  12.
 NSaved=12 IEnMin=12 EnMin= -389.155214340955     IErMin=12 ErrMin= 3.64D-08
 ErrMax= 3.64D-08  0.00D+00 EMaxC= 1.00D-01 BMatC= 1.17D-12 BMatP= 9.54D-12
 IDIUse=1 WtCom= 1.00D+00 WtEn= 0.00D+00
 Coeff-Com: -0.102D-05 0.547D-05 0.429D-04 0.324D-05-0.342D-03-0.125D-02
 Coeff-Com:  0.366D-03 0.217D-01-0.321D-01-0.113D+00 0.981D-01 0.103D+01
 Coeff:     -0.102D-05 0.547D-05 0.429D-04 0.324D-05-0.342D-03-0.125D-02
 Coeff:      0.366D-03 0.217D-01-0.321D-01-0.113D+00 0.981D-01 0.103D+01
 Gap=     0.500 Goal=   None    Shift=    0.000
 RMSDP=1.18D-08 MaxDP=3.33D-07 DE=-3.05D-11 OVMax= 8.46D-07

 Cycle  13  Pass 1  IDiag  1:
 E= -389.155214340965     Delta-E=       -0.000000000010 Rises=F Damp=F
 DIIS: error= 1.06D-08 at cycle  13 NSaved=  13.
 NSaved=13 IEnMin=13 EnMin= -389.155214340965     IErMin=13 ErrMin= 1.06D-08
 ErrMax= 1.06D-08  0.00D+00 EMaxC= 1.00D-01 BMatC= 5.47D-14 BMatP= 1.17D-12
 IDIUse=1 WtCom= 1.00D+00 WtEn= 0.00D+00
 Coeff-Com: -0.122D-06 0.462D-06 0.389D-05 0.136D-04-0.170D-04-0.298D-03
 Coeff-Com: -0.849D-03 0.352D-02 0.516D-02-0.212D-01-0.612D-01 0.111D+00
 Coeff-Com:  0.964D+00
 Coeff:     -0.122D-06 0.462D-06 0.389D-05 0.136D-04-0.170D-04-0.298D-03
 Coeff:     -0.849D-03 0.352D-02 0.516D-02-0.212D-01-0.612D-01 0.111D+00
 Coeff:      0.964D+00
 Gap=     0.500 Goal=   None    Shift=    0.000
 RMSDP=2.13D-09 MaxDP=7.03D-08 DE=-9.78D-12 OVMax= 1.05D-07

 SCF Done:  E(RHF) =  -389.155214341     A.U. after   13 cycles
            NFock= 13  Conv=0.21D-08     -V/T= 2.0014
 KE= 3.886263372829D+02 PE=-1.937510278185D+03 EE= 6.432906429262D+02
 Leave Link  502 at Fri Sep 17 13:33:28 2021, MaxMem=   524288000 cpu:              38.2 elap:              38.4
 (Enter /opt/gaussian/g16_legacy/l801.exe)
 ExpMin= 1.61D-01 ExpMax= 3.05D+03 ExpMxC= 4.57D+02 IAcc=3 IRadAn=         5 AccDes= 0.00D+00
 HarFok:  IExCor=  205 AccDes= 0.00D+00 IRadAn=         5 IDoV=-2 UseB2=F ITyADJ=14
 ICtDFT= 12500011 ScaDFX=  1.000000  1.000000  1.000000  1.000000
 Largest valence mixing into a core orbital is  1.98D-04
 Largest core mixing into a valence orbital is  3.52D-05
 Range of M.O.s used for correlation:    11   240
 NBasis=   240 NAE=    39 NBE=    39 NFC=    10 NFV=     0
 NROrb=    230 NOA=    29 NOB=    29 NVA=   201 NVB=   201
 Leave Link  801 at Fri Sep 17 13:33:30 2021, MaxMem=   524288000 cpu:               1.6 elap:               1.6
 (Enter /opt/gaussian/g16_legacy/l906.exe)
 Frozen-core derivative calculation, NFC=  10 NFV=   0.
 FulOut=F Deriv=T AODrv=T NAtomX=    28
   MMem=          88  MDisk=          29 MDiskD=          29
  W3Min=     2246400 MinDsk=     2795480 NBas6D=         240
 NBas2D=       29244    NTT=       28920    LW2=     2040000
    MDV=   523626386 MDiskM=       30186 NBas2p=       24383
 Fully direct method using O(ONN) memory.
 IMap=   1   2   3   4   5   6   7   8   9  10  11  12  13  14  15  16  17  18  19  20
 IMap=  21  22  23  24  25  26  27  28  29  30  31  32  33  34  35  36  37  38  39
 JobTyp=1 Pass  1:  I=  11 to  39 NPSUse=  1 ParTrn=F ParDer=F DoDerP=T.
 Spin components of T(2) and E(2):
     alpha-alpha T2 =       0.5715091044D-01 E2=     -0.1638025317D+00
     alpha-beta  T2 =       0.3618102253D+00 E2=     -0.1089333929D+01
     beta-beta   T2 =       0.5715091044D-01 E2=     -0.1638025317D+00
 The integrals were generated   1 times.
 ANorm=    0.1214953516D+01
 E2 =    -0.1416938993D+01 EUMP2 =    -0.39057215333366D+03
 Leave Link  906 at Fri Sep 17 13:38:07 2021, MaxMem=   524288000 cpu:             276.9 elap:             277.1
 (Enter /opt/gaussian/g16_legacy/l1002.exe)
 Minotr:  Closed shell wavefunction.
          Computing MP2/KS-MP2 derivatives.
          Using Z-Vector for PSCF gradient.
          Skipping F1 and S1 gradient terms here.
          IDoAtm=1111111111111111111111111111
          Frozen-core window.
          Direct CPHF calculation.
          Differentiating once with respect to electric field.
                with respect to dipole field.
          Differentiating once with respect to nuclear coordinates.
          Requested convergence is 1.0D-10 RMS, and 1.0D-09 maximum.
          NewPWx=F KeepS1=T KeepF1=T KeepIn=T MapXYZ=F SortEE=F KeepMc=T.
 Keep R1 ints in memory in canonical form, NReq=425201067.
 FoFCou: FMM=F IPFlag=           0 FMFlag=           0 FMFlg1=           0
         NFxFlg=           0 DoJE=F BraDBF=F KetDBF=F FulRan=T
         wScrn=  0.000000 ICntrl=       600 IOpCl=  0 I1Cent=           0 NGrid=           0
         NMat0=    1 NMatS0=  28920 NMatT0=    0 NMatD0=    1 NMtDS0=    0 NMtDT0=    0
 Symmetry not used in FoFCou.
 Two-electron integral symmetry not used.
          MDV=     524288000 using IRadAn=       5.
          Solving linear equations separately, MaxMat=       0.
          There are     1 degrees of freedom in the 1st order CPHF.  IDoFFX=0 NUNeed=     1.
 LinEq1:  Iter=  0 NonCon=     1 RMS=2.55D-03 Max=3.76D-02 NDo=     1
 AX will form     1 AO Fock derivatives at one time.
 LinEq1:  Iter=  1 NonCon=     1 RMS=6.90D-04 Max=9.74D-03 NDo=     1
 LinEq1:  Iter=  2 NonCon=     1 RMS=1.61D-04 Max=4.14D-03 NDo=     1
 LinEq1:  Iter=  3 NonCon=     1 RMS=4.31D-05 Max=5.07D-04 NDo=     1
 LinEq1:  Iter=  4 NonCon=     1 RMS=1.99D-05 Max=8.55D-04 NDo=     1
 LinEq1:  Iter=  5 NonCon=     1 RMS=5.06D-06 Max=8.27D-05 NDo=     1
 LinEq1:  Iter=  6 NonCon=     1 RMS=1.63D-06 Max=2.68D-05 NDo=     1
 LinEq1:  Iter=  7 NonCon=     1 RMS=4.13D-07 Max=4.18D-06 NDo=     1
 LinEq1:  Iter=  8 NonCon=     1 RMS=1.01D-07 Max=1.86D-06 NDo=     1
 LinEq1:  Iter=  9 NonCon=     1 RMS=2.33D-08 Max=6.32D-07 NDo=     1
 LinEq1:  Iter= 10 NonCon=     1 RMS=6.41D-09 Max=1.62D-07 NDo=     1
 LinEq1:  Iter= 11 NonCon=     1 RMS=1.89D-09 Max=3.62D-08 NDo=     1
 LinEq1:  Iter= 12 NonCon=     1 RMS=4.06D-10 Max=5.82D-09 NDo=     1
 LinEq1:  Iter= 13 NonCon=     1 RMS=1.01D-10 Max=1.82D-09 NDo=     1
 LinEq1:  Iter= 14 NonCon=     0 RMS=3.05D-11 Max=6.81D-10 NDo=     1
 Linear equations converged to 1.000D-10 1.000D-09 after    14 iterations.
 End of Minotr F.D. properties file   721 does not exist.
 End of Minotr F.D. properties file   722 does not exist.
 End of Minotr F.D. properties file   788 does not exist.
 Leave Link 1002 at Fri Sep 17 13:38:50 2021, MaxMem=   524288000 cpu:              43.2 elap:              43.3
 (Enter /opt/gaussian/g16_legacy/l601.exe)
 Copying SCF densities to generalized density rwf, IOpCl= 0 IROHF=0.

 **********************************************************************

            Population analysis using the SCF density.

 **********************************************************************

 Orbital symmetries:
       Occupied  (A) (A) (A) (A) (A) (A) (A) (A) (A) (A) (A) (A)
                 (A) (A) (A) (A) (A) (A) (A) (A) (A) (A) (A) (A)
                 (A) (A) (A) (A) (A) (A) (A) (A) (A) (A) (A) (A)
                 (A) (A) (A)
       Virtual   (A) (A) (A) (A) (A) (A) (A) (A) (A) (A) (A) (A)
                 (A) (A) (A) (A) (A) (A) (A) (A) (A) (A) (A) (A)
                 (A) (A) (A) (A) (A) (A) (A) (A) (A) (A) (A) (A)
                 (A) (A) (A) (A) (A) (A) (A) (A) (A) (A) (A) (A)
                 (A) (A) (A) (A) (A) (A) (A) (A) (A) (A) (A) (A)
                 (A) (A) (A) (A) (A) (A) (A) (A) (A) (A) (A) (A)
                 (A) (A) (A) (A) (A) (A) (A) (A) (A) (A) (A) (A)
                 (A) (A) (A) (A) (A) (A) (A) (A) (A) (A) (A) (A)
                 (A) (A) (A) (A) (A) (A) (A) (A) (A) (A) (A) (A)
                 (A) (A) (A) (A) (A) (A) (A) (A) (A) (A) (A) (A)
                 (A) (A) (A) (A) (A) (A) (A) (A) (A) (A) (A) (A)
                 (A) (A) (A) (A) (A) (A) (A) (A) (A) (A) (A) (A)
                 (A) (A) (A) (A) (A) (A) (A) (A) (A) (A) (A) (A)
                 (A) (A) (A) (A) (A) (A) (A) (A) (A) (A) (A) (A)
                 (A) (A) (A) (A) (A) (A) (A) (A) (A) (A) (A) (A)
                 (A) (A) (A) (A) (A) (A) (A) (A) (A) (A) (A) (A)
                 (A) (A) (A) (A) (A) (A) (A) (A) (A)
 The electronic state is 1-A.
 Alpha  occ. eigenvalues --  -11.23059 -11.22505 -11.22000 -11.21921 -11.21882
 Alpha  occ. eigenvalues --  -11.21650 -11.21554 -11.21485 -11.21455 -11.21437
 Alpha  occ. eigenvalues --   -1.10624  -1.08328  -1.01911  -0.98013  -0.93647
 Alpha  occ. eigenvalues --   -0.91776  -0.86755  -0.82686  -0.70599  -0.69343
 Alpha  occ. eigenvalues --   -0.64585  -0.61545  -0.60102  -0.59030  -0.58088
 Alpha  occ. eigenvalues --   -0.56803  -0.55367  -0.55149  -0.53547  -0.51981
 Alpha  occ. eigenvalues --   -0.51716  -0.51321  -0.50593  -0.49229  -0.48276
 Alpha  occ. eigenvalues --   -0.46014  -0.44273  -0.33357  -0.31526
 Alpha virt. eigenvalues --    0.18456   0.19494   0.22038   0.24454   0.25183
 Alpha virt. eigenvalues --    0.27142   0.28394   0.28932   0.30250   0.30504
 Alpha virt. eigenvalues --    0.31238   0.32117   0.33135   0.33435   0.34031
 Alpha virt. eigenvalues --    0.35677   0.35774   0.36970   0.38998   0.40649
 Alpha virt. eigenvalues --    0.41063   0.42594   0.43322   0.44193   0.45150
 Alpha virt. eigenvalues --    0.51684   0.54046   0.61172   0.62446   0.70139
 Alpha virt. eigenvalues --    0.71102   0.71887   0.74280   0.76417   0.76616
 Alpha virt. eigenvalues --    0.76876   0.78796   0.79455   0.81140   0.82036
 Alpha virt. eigenvalues --    0.83811   0.85655   0.88079   0.91266   0.92026
 Alpha virt. eigenvalues --    0.92897   0.95178   0.97058   0.98264   0.99206
 Alpha virt. eigenvalues --    0.99751   1.00203   1.02302   1.03927   1.06180
 Alpha virt. eigenvalues --    1.07863   1.08640   1.08809   1.11199   1.12392
 Alpha virt. eigenvalues --    1.12560   1.13433   1.14583   1.14926   1.15820
 Alpha virt. eigenvalues --    1.16165   1.16402   1.18224   1.18707   1.20092
 Alpha virt. eigenvalues --    1.20660   1.22067   1.22853   1.25019   1.27543
 Alpha virt. eigenvalues --    1.34171   1.40672   1.41852   1.43742   1.45170
 Alpha virt. eigenvalues --    1.47560   1.53477   1.56257   1.56981   1.58248
 Alpha virt. eigenvalues --    1.59850   1.62720   1.65798   1.69519   1.70789
 Alpha virt. eigenvalues --    1.75331   1.82524   1.92037   1.92196   1.95503
 Alpha virt. eigenvalues --    1.98631   2.01127   2.02849   2.04183   2.08702
 Alpha virt. eigenvalues --    2.09243   2.11121   2.11379   2.13103   2.14510
 Alpha virt. eigenvalues --    2.15427   2.17690   2.19725   2.23577   2.27385
 Alpha virt. eigenvalues --    2.28340   2.29994   2.32200   2.34974   2.35568
 Alpha virt. eigenvalues --    2.35648   2.35783   2.39325   2.39850   2.40350
 Alpha virt. eigenvalues --    2.41285   2.41827   2.43036   2.45164   2.45384
 Alpha virt. eigenvalues --    2.47037   2.48341   2.49338   2.50342   2.54525
 Alpha virt. eigenvalues --    2.56587   2.57721   2.61275   2.62184   2.64354
 Alpha virt. eigenvalues --    2.66343   2.67160   2.72032   2.72995   2.73746
 Alpha virt. eigenvalues --    2.75720   2.77701   2.81090   2.82804   2.85158
 Alpha virt. eigenvalues --    2.87730   2.89155   2.91921   2.93445   2.94438
 Alpha virt. eigenvalues --    2.97095   2.99038   3.01166   3.02603   3.05102
 Alpha virt. eigenvalues --    3.05824   3.06633   3.08508   3.13017   3.15941
 Alpha virt. eigenvalues --    3.17136   3.18164   3.19612   3.20684   3.21264
 Alpha virt. eigenvalues --    3.23193   3.24416   3.26461   3.27246   3.36669
 Alpha virt. eigenvalues --    3.39077   3.44611   3.45623   3.55548   3.57297
 Alpha virt. eigenvalues --    3.58694   3.61057   3.66892   3.73954   3.78199
 Alpha virt. eigenvalues --    3.78869   3.80512   3.81325   3.82334   3.82837
 Alpha virt. eigenvalues --    3.84214   3.85754   3.87661   3.89516   3.91179
 Alpha virt. eigenvalues --    3.95899   4.59097   4.62635   4.74428   4.82816
 Alpha virt. eigenvalues --    4.88837   4.92668   4.93351   5.07551   5.10289
 Alpha virt. eigenvalues --    5.16870
          Condensed to atoms (all electrons):
               1          2          3          4          5          6
     1  C    5.001808   0.413509   0.412354   0.340289  -0.058751  -0.000531
     2  H    0.413509   0.588508  -0.030232  -0.045056  -0.004691  -0.000276
     3  H    0.412354  -0.030232   0.571683  -0.040530   0.003238  -0.000030
     4  C    0.340289  -0.045056  -0.040530   4.955049   0.349340  -0.045809
     5  C   -0.058751  -0.004691   0.003238   0.349340   4.896452   0.400290
     6  H   -0.000531  -0.000276  -0.000030  -0.045809   0.400290   0.594750
     7  H   -0.003554   0.002571  -0.000016  -0.043071   0.397380  -0.035021
     8  H    0.003677   0.000081  -0.000103  -0.041415   0.406183  -0.028075
     9  C   -0.044043   0.001918  -0.002232   0.698845  -0.045939  -0.001035
    10  H    0.003079  -0.000114   0.000060  -0.036529  -0.006481   0.000123
    11  C   -0.007064   0.000138  -0.002136  -0.050683   0.003425  -0.000100
    12  H    0.000227   0.000028   0.000172  -0.001412  -0.000116  -0.000005
    13  H    0.000232  -0.000010  -0.000034   0.000593  -0.000100   0.000015
    14  H   -0.001829   0.000004  -0.001334  -0.000418   0.000092   0.000000
    15  C    0.000597  -0.000016   0.000160  -0.000017  -0.000000  -0.000000
    16  H    0.000077  -0.000001  -0.000076  -0.000002   0.000000   0.000000
    17  H   -0.000053  -0.000012  -0.000052  -0.000027  -0.000000   0.000000
    18  H   -0.000041   0.000000   0.000014   0.000001  -0.000000   0.000000
    19  C   -0.003607   0.000615   0.001046   0.000006  -0.000002   0.000000
    20  C   -0.000101  -0.000000  -0.000042   0.000002  -0.000000  -0.000000
    21  H   -0.000003   0.000002  -0.000002   0.000000  -0.000000  -0.000000
    22  H   -0.000004   0.000000   0.000001   0.000000  -0.000000   0.000000
    23  H    0.000022  -0.000001  -0.000005  -0.000000   0.000000   0.000000
    24  C   -0.063054  -0.000609  -0.000808   0.006130  -0.000158  -0.000086
    25  H    0.000004   0.001004   0.000213  -0.000155   0.000010   0.000012
    26  C    0.326227  -0.044606  -0.039851  -0.057363  -0.000187   0.000811
    27  H   -0.045128  -0.002604   0.004290  -0.001851  -0.000392  -0.000187
    28  H   -0.040299   0.004203  -0.002145  -0.001438   0.000317  -0.000009
               7          8          9         10         11         12
     1  C   -0.003554   0.003677  -0.044043   0.003079  -0.007064   0.000227
     2  H    0.002571   0.000081   0.001918  -0.000114   0.000138   0.000028
     3  H   -0.000016  -0.000103  -0.002232   0.000060  -0.002136   0.000172
     4  C   -0.043071  -0.041415   0.698845  -0.036529  -0.050683  -0.001412
     5  C    0.397380   0.406183  -0.045939  -0.006481   0.003425  -0.000116
     6  H   -0.035021  -0.028075  -0.001035   0.000123  -0.000100  -0.000005
     7  H    0.593646  -0.027613  -0.000425   0.000248  -0.000114   0.000021
     8  H   -0.027613   0.571040  -0.002739   0.002222   0.000137  -0.000004
     9  C   -0.000425  -0.002739   4.939945   0.404881   0.337722  -0.044357
    10  H    0.000248   0.002222   0.404881   0.559333  -0.043638  -0.000221
    11  C   -0.000114   0.000137   0.337722  -0.043638   4.906230   0.400023
    12  H    0.000021  -0.000004  -0.044357  -0.000221   0.400023   0.584263
    13  H   -0.000004  -0.000009  -0.042832  -0.002645   0.403005  -0.033277
    14  H   -0.000001   0.000004  -0.041938   0.003315   0.408016  -0.026855
    15  C   -0.000000  -0.000000   0.000010  -0.000000  -0.000097   0.000002
    16  H   -0.000000  -0.000000   0.000000  -0.000000  -0.000003  -0.000000
    17  H   -0.000000   0.000000  -0.000032   0.000000   0.000040  -0.000008
    18  H    0.000000   0.000000   0.000000   0.000000   0.000002   0.000000
    19  C    0.000000   0.000000   0.000001   0.000000   0.000007  -0.000000
    20  C   -0.000000   0.000000  -0.000000   0.000000  -0.000000   0.000000
    21  H   -0.000000   0.000000  -0.000000   0.000000   0.000000  -0.000000
    22  H    0.000000   0.000000   0.000000   0.000000  -0.000000   0.000000
    23  H   -0.000000  -0.000000  -0.000000  -0.000000   0.000000  -0.000000
    24  C    0.000001   0.000003   0.000070   0.000002  -0.000032   0.000002
    25  H   -0.000002  -0.000000  -0.000002  -0.000000   0.000000   0.000000
    26  C    0.000027  -0.000097  -0.004367  -0.000116   0.000690  -0.000050
    27  H    0.000093  -0.000025   0.000514   0.000004  -0.000030  -0.000000
    28  H    0.000012  -0.000010   0.001215  -0.000044   0.000070   0.000023
              13         14         15         16         17         18
     1  C    0.000232  -0.001829   0.000597   0.000077  -0.000053  -0.000041
     2  H   -0.000010   0.000004  -0.000016  -0.000001  -0.000012   0.000000
     3  H   -0.000034  -0.001334   0.000160  -0.000076  -0.000052   0.000014
     4  C    0.000593  -0.000418  -0.000017  -0.000002  -0.000027   0.000001
     5  C   -0.000100   0.000092  -0.000000   0.000000  -0.000000  -0.000000
     6  H    0.000015   0.000000  -0.000000   0.000000   0.000000   0.000000
     7  H   -0.000004  -0.000001  -0.000000  -0.000000  -0.000000   0.000000
     8  H   -0.000009   0.000004  -0.000000  -0.000000   0.000000   0.000000
     9  C   -0.042832  -0.041938   0.000010   0.000000  -0.000032   0.000000
    10  H   -0.002645   0.003315  -0.000000  -0.000000   0.000000   0.000000
    11  C    0.403005   0.408016  -0.000097  -0.000003   0.000040   0.000002
    12  H   -0.033277  -0.026855   0.000002  -0.000000  -0.000008   0.000000
    13  H    0.586785  -0.030017  -0.000004   0.000000   0.000042  -0.000000
    14  H   -0.030017   0.573909   0.000009   0.000034   0.000571  -0.000006
    15  C   -0.000004   0.000009   4.909218   0.402447   0.406155   0.398266
    16  H    0.000000   0.000034   0.402447   0.586181  -0.030012  -0.033100
    17  H    0.000042   0.000571   0.406155  -0.030012   0.568174  -0.026277
    18  H   -0.000000  -0.000006   0.398266  -0.033100  -0.026277   0.582559
    19  C    0.000000  -0.000013   0.348403  -0.043924  -0.037058  -0.043822
    20  C   -0.000000   0.000000  -0.065383  -0.003430   0.003679  -0.001685
    21  H   -0.000000  -0.000000   0.003696   0.000010  -0.000108  -0.000079
    22  H   -0.000000  -0.000000  -0.001105  -0.000507  -0.000023   0.002553
    23  H    0.000000  -0.000000  -0.002141   0.002847  -0.000072  -0.000371
    24  C   -0.000004   0.000003  -0.043326   0.000449  -0.002871  -0.000843
    25  H    0.000000  -0.000001   0.003366  -0.000110   0.000059  -0.000126
    26  C    0.000091  -0.000212  -0.007533   0.000286  -0.001944   0.000188
    27  H    0.000000  -0.000008   0.000169  -0.000012   0.000031   0.000032
    28  H   -0.000079  -0.000252  -0.002065  -0.000043  -0.001170   0.000056
              19         20         21         22         23         24
     1  C   -0.003607  -0.000101  -0.000003  -0.000004   0.000022  -0.063054
     2  H    0.000615  -0.000000   0.000002   0.000000  -0.000001  -0.000609
     3  H    0.001046  -0.000042  -0.000002   0.000001  -0.000005  -0.000808
     4  C    0.000006   0.000002   0.000000   0.000000  -0.000000   0.006130
     5  C   -0.000002  -0.000000  -0.000000  -0.000000   0.000000  -0.000158
     6  H    0.000000  -0.000000  -0.000000   0.000000   0.000000  -0.000086
     7  H    0.000000  -0.000000  -0.000000   0.000000  -0.000000   0.000001
     8  H    0.000000   0.000000   0.000000   0.000000  -0.000000   0.000003
     9  C    0.000001  -0.000000  -0.000000   0.000000  -0.000000   0.000070
    10  H    0.000000   0.000000   0.000000   0.000000  -0.000000   0.000002
    11  C    0.000007  -0.000000   0.000000  -0.000000   0.000000  -0.000032
    12  H   -0.000000   0.000000  -0.000000   0.000000  -0.000000   0.000002
    13  H    0.000000  -0.000000  -0.000000  -0.000000   0.000000  -0.000004
    14  H   -0.000013   0.000000  -0.000000  -0.000000  -0.000000   0.000003
    15  C    0.348403  -0.065383   0.003696  -0.001105  -0.002141  -0.043326
    16  H   -0.043924  -0.003430   0.000010  -0.000507   0.002847   0.000449
    17  H   -0.037058   0.003679  -0.000108  -0.000023  -0.000072  -0.002871
    18  H   -0.043822  -0.001685  -0.000079   0.002553  -0.000371  -0.000843
    19  C    4.918177   0.352281  -0.040401  -0.045757  -0.044306   0.698196
    20  C    0.352281   4.903256   0.405423   0.399266   0.396987  -0.044861
    21  H   -0.040401   0.405423   0.568044  -0.027560  -0.027370  -0.002385
    22  H   -0.045757   0.399266  -0.027560   0.593046  -0.034901  -0.001136
    23  H   -0.044306   0.396987  -0.027370  -0.034901   0.594317  -0.000547
    24  C    0.698196  -0.044861  -0.002385  -0.001136  -0.000547   4.961498
    25  H   -0.036147  -0.006750   0.002178   0.000150   0.000235   0.402014
    26  C   -0.048263   0.003152   0.000146  -0.000124  -0.000086   0.339927
    27  H    0.000914  -0.000102  -0.000011   0.000012  -0.000002  -0.043353
    28  H    0.000824   0.000070   0.000006   0.000004  -0.000004  -0.043814
              25         26         27         28
     1  C    0.000004   0.326227  -0.045128  -0.040299
     2  H    0.001004  -0.044606  -0.002604   0.004203
     3  H    0.000213  -0.039851   0.004290  -0.002145
     4  C   -0.000155  -0.057363  -0.001851  -0.001438
     5  C    0.000010  -0.000187  -0.000392   0.000317
     6  H    0.000012   0.000811  -0.000187  -0.000009
     7  H   -0.000002   0.000027   0.000093   0.000012
     8  H   -0.000000  -0.000097  -0.000025  -0.000010
     9  C   -0.000002  -0.004367   0.000514   0.001215
    10  H   -0.000000  -0.000116   0.000004  -0.000044
    11  C    0.000000   0.000690  -0.000030   0.000070
    12  H    0.000000  -0.000050  -0.000000   0.000023
    13  H    0.000000   0.000091   0.000000  -0.000079
    14  H   -0.000001  -0.000212  -0.000008  -0.000252
    15  C    0.003366  -0.007533   0.000169  -0.002065
    16  H   -0.000110   0.000286  -0.000012  -0.000043
    17  H    0.000059  -0.001944   0.000031  -0.001170
    18  H   -0.000126   0.000188   0.000032   0.000056
    19  C   -0.036147  -0.048263   0.000914   0.000824
    20  C   -0.006750   0.003152  -0.000102   0.000070
    21  H    0.002178   0.000146  -0.000011   0.000006
    22  H    0.000150  -0.000124   0.000012   0.000004
    23  H    0.000235  -0.000086  -0.000002  -0.000004
    24  C    0.402014   0.339927  -0.043353  -0.043814
    25  H    0.558532  -0.041270  -0.003486   0.003231
    26  C   -0.041270   4.982300   0.413774   0.414876
    27  H   -0.003486   0.413774   0.588489  -0.029595
    28  H    0.003231   0.414876  -0.029595   0.571229
 Mulliken charges:
               1
     1  C   -0.234036
     2  H    0.115646
     3  H    0.126397
     4  C    0.015523
     5  C   -0.339909
     6  H    0.115161
     7  H    0.115821
     8  H    0.116742
     9  C   -0.155179
    10  H    0.116520
    11  C   -0.355608
    12  H    0.121545
    13  H    0.118252
    14  H    0.116926
    15  C   -0.350810
    16  H    0.118890
    17  H    0.120968
    18  H    0.122679
    19  C    0.022833
    20  C   -0.341762
    21  H    0.118413
    22  H    0.116085
    23  H    0.115400
    24  C   -0.160408
    25  H    0.117043
    26  C   -0.236427
    27  H    0.118465
    28  H    0.124828
 Sum of Mulliken charges =  -0.00000
 Mulliken charges with hydrogens summed into heavy atoms:
               1
     1  C    0.008007
     4  C    0.015523
     5  C    0.007816
     9  C   -0.038660
    11  C    0.001116
    15  C    0.011727
    19  C    0.022833
    20  C    0.008135
    24  C   -0.043366
    26  C    0.006867
 Electronic spatial extent (au):  <R**2>=           2423.6453
 Charge=             -0.0000 electrons
 Dipole moment (field-independent basis, Debye):
    X=             -0.2947    Y=              0.1261    Z=             -0.0060  Tot=              0.3206
 Quadrupole moment (field-independent basis, Debye-Ang):
   XX=            -64.5119   YY=            -63.6032   ZZ=            -67.0542
   XY=             -0.6109   XZ=             -0.8628   YZ=             -0.4853
 Traceless Quadrupole moment (field-independent basis, Debye-Ang):
   XX=              0.5445   YY=              1.4533   ZZ=             -1.9978
   XY=             -0.6109   XZ=             -0.8628   YZ=             -0.4853
 Octapole moment (field-independent basis, Debye-Ang**2):
  XXX=             -1.3658  YYY=             -2.7201  ZZZ=              0.1847  XYY=              0.5720
  XXY=              4.5357  XXZ=             -2.6537  XZZ=             -1.5758  YZZ=              1.2275
  YYZ=              1.3689  XYZ=              0.7515
 Hexadecapole moment (field-independent basis, Debye-Ang**3):
 XXXX=          -2492.2839 YYYY=           -696.0967 ZZZZ=           -174.8218 XXXY=              2.3402
 XXXZ=            -11.9281 YYYX=              9.3495 YYYZ=             -3.0523 ZZZX=              0.8355
 ZZZY=             -0.0643 XXYY=           -530.4665 XXZZ=           -456.3175 YYZZ=           -139.1703
 XXYZ=             -4.2408 YYXZ=             -3.2010 ZZXY=             -4.6984
 N-N= 5.164380836347D+02 E-N=-1.937510278297D+03  KE= 3.886263372829D+02
 No NMR shielding tensors so no spin-rotation constants.
 Leave Link  601 at Fri Sep 17 13:38:51 2021, MaxMem=   524288000 cpu:               0.3 elap:               0.3
 (Enter /opt/gaussian/g16_legacy/l701.exe)
 ... and contract with generalized density number  2.
 Compute integral first derivatives.
 Leave Link  701 at Fri Sep 17 13:38:51 2021, MaxMem=   524288000 cpu:               0.3 elap:               0.3
 (Enter /opt/gaussian/g16_legacy/l702.exe)
 L702 exits ... SP integral derivatives will be done elsewhere.
 Leave Link  702 at Fri Sep 17 13:38:51 2021, MaxMem=   524288000 cpu:               0.0 elap:               0.1
 (Enter /opt/gaussian/g16_legacy/l703.exe)
 Integral derivatives from FoFJK, PRISM(SPDF).
 Compute integral first derivatives, UseDBF=F ICtDFT=           0.
 Calling FoFJK, ICntrl=  10002127 FMM=F ISym2X=0 I1Cent= 0 IOpClX= 0 NMat=1 NMatS=1 NMatT=0.
 FoFJK:  IHMeth= 1 ICntrl=10002127 DoSepK=F KAlg= 0 I1Cent=           0 FoldK=F
 IRaf=         0 NMat=       1 IRICut=       1 DoRegI=T DoRafI=F ISym2E= 0 IDoP0=0 IntGTp=1.
 FoFCou: FMM=F IPFlag=           0 FMFlag=      100000 FMFlg1=         800
         NFxFlg=           0 DoJE=F BraDBF=F KetDBF=F FulRan=T
         wScrn=  0.000000 ICntrl=  10002127 IOpCl=  0 I1Cent=           0 NGrid=           0
         NMat0=    1 NMatS0=      1 NMatT0=    0 NMatD0=    1 NMtDS0=    0 NMtDT0=    0
 Symmetry not used in FoFCou.
 Leave Link  703 at Fri Sep 17 13:39:25 2021, MaxMem=   524288000 cpu:              33.5 elap:              33.6
 (Enter /opt/gaussian/g16_legacy/l716.exe)
 Dipole        =-9.10780260D-02 6.68857466D-02-4.79377008D-03
 ***** Axes restored to original set *****
 -------------------------------------------------------------------
 Center     Atomic                   Forces (Hartrees/Bohr)
 Number     Number              X              Y              Z
 -------------------------------------------------------------------
      1        6           0.007805665   -0.005297001    0.001068331
      2        1          -0.000651806    0.001580195    0.003410102
      3        1          -0.001140641    0.003507687    0.002891506
      4        6           0.004746825   -0.001152454   -0.004190315
      5        6           0.002734721    0.000516091    0.001592600
      6        1           0.001001510   -0.000581085   -0.003148553
      7        1          -0.001706592    0.002190677    0.001908515
      8        1          -0.003729807   -0.001665917   -0.000213600
      9        6          -0.002323878    0.002937293    0.000611912
     10        1          -0.002186960    0.001888641   -0.002037887
     11        6          -0.001896002   -0.001766975    0.000822716
     12        1          -0.001875109   -0.000453347    0.002856048
     13        1           0.000387789   -0.002299680   -0.002538657
     14        1           0.003027567    0.001106559   -0.001007585
     15        6           0.004004807    0.000030710    0.002115041
     16        1          -0.001876566    0.002846794    0.001258697
     17        1          -0.002371297    0.001900735   -0.001571843
     18        1           0.000407791   -0.002941410   -0.001101119
     19        6           0.001152095    0.000738965   -0.005075813
     20        6           0.000281760    0.001659894   -0.003000649
     21        1           0.001898630   -0.001700867    0.003538425
     22        1           0.000423401   -0.002931915   -0.001571865
     23        1          -0.002208277    0.001738915    0.002156322
     24        6           0.000795366    0.004149769    0.003135981
     25        1          -0.001808471   -0.002669561    0.001122653
     26        6          -0.007798604    0.001320745    0.000924946
     27        1           0.001967201   -0.002732862   -0.000572836
     28        1           0.000938883   -0.001920596   -0.003383072
 -------------------------------------------------------------------
 Cartesian Forces:  Max     0.007805665 RMS     0.002571242
 Leave Link  716 at Fri Sep 17 13:39:25 2021, MaxMem=   524288000 cpu:               0.1 elap:               0.1
 (Enter /opt/gaussian/g16_legacy/l103.exe)

 GradGradGradGradGradGradGradGradGradGradGradGradGradGradGradGradGradGrad
 Berny optimization.
 FormGI is forming the generalized inverse of G from B-inverse, IUseBI=4.
 GSVD:  received Info=                   1 from GESDD.
 Internal  Forces:  Max     0.004882979 RMS     0.001914783
 Search for a local minimum.
 Step number   1 out of a maximum of  138
 All quantities printed in internal units (Hartrees-Bohrs-Radians)
 RMS Force = .19148D-02 SwitMx=.10000D-02 MixMth= 1
 Mixed Optimization -- RFO/linear search
 Second derivative matrix not updated -- first step.
 ITU=  0
     Eigenvalues ---    0.00343   0.00570   0.00672   0.00680   0.00692
     Eigenvalues ---    0.00714   0.00817   0.01219   0.01287   0.01569
     Eigenvalues ---    0.01641   0.02779   0.02785   0.04018   0.04138
     Eigenvalues ---    0.05349   0.05399   0.06978   0.07035   0.07091
     Eigenvalues ---    0.07093   0.07269   0.07301   0.07347   0.07504
     Eigenvalues ---    0.09277   0.09362   0.12767   0.12843   0.15999
     Eigenvalues ---    0.15999   0.16000   0.16000   0.16000   0.16000
     Eigenvalues ---    0.16000   0.16000   0.16000   0.16000   0.16000
     Eigenvalues ---    0.16000   0.16000   0.16000   0.21858   0.21866
     Eigenvalues ---    0.22000   0.22000   0.24994   0.24997   0.24998
     Eigenvalues ---    0.24999   0.29242   0.30870   0.31642   0.31708
     Eigenvalues ---    0.31797   0.31968   0.32789   0.33864   0.33969
     Eigenvalues ---    0.34063   0.34202   0.34224   0.34226   0.34245
     Eigenvalues ---    0.34249   0.34252   0.34253   0.34257   0.34263
     Eigenvalues ---    0.34301   0.34332   0.34552   0.34556   0.34797
     Eigenvalues ---    0.34859   0.55493   0.55591
 RFO step:  Lambda=-2.95487636D-03 EMin= 3.43017528D-03
 Linear search not attempted -- first point.
 Iteration  1 RMS(Cart)=  0.03970130 RMS(Int)=  0.00072312
 Iteration  2 RMS(Cart)=  0.00093429 RMS(Int)=  0.00016584
 Iteration  3 RMS(Cart)=  0.00000043 RMS(Int)=  0.00016584
 ITry= 1 IFail=0 DXMaxC= 1.83D-01 DCOld= 1.00D+10 DXMaxT= 3.00D-01 DXLimC= 3.00D+00 Rises=F
 Variable       Old X    -DE/DX   Delta X   Delta X   Delta X     New X
                                 (Linear)    (Quad)   (Total)
    R1        2.07560  -0.00279   0.00000  -0.00817  -0.00817   2.06743
    R2        2.07224  -0.00331   0.00000  -0.00965  -0.00965   2.06260
    R3        2.86262  -0.00353   0.00000  -0.01134  -0.01134   2.85128
    R4        2.89501   0.00174   0.00000   0.00588   0.00588   2.90089
    R5        2.84804  -0.00041   0.00000  -0.00127  -0.00127   2.84677
    R6        2.54697  -0.00398   0.00000  -0.00714  -0.00714   2.53983
    R7        2.06825  -0.00176   0.00000  -0.00510  -0.00510   2.06315
    R8        2.06907  -0.00214   0.00000  -0.00621  -0.00621   2.06286
    R9        2.06954  -0.00370   0.00000  -0.01071  -0.01071   2.05883
   R10        2.05904  -0.00215   0.00000  -0.00612  -0.00612   2.05292
   R11        2.82724   0.00306   0.00000   0.00926   0.00926   2.83650
   R12        2.06774  -0.00159   0.00000  -0.00461  -0.00461   2.06313
   R13        2.06889  -0.00259   0.00000  -0.00749  -0.00749   2.06140
   R14        2.06409  -0.00292   0.00000  -0.00837  -0.00837   2.05572
   R15        2.06991  -0.00260   0.00000  -0.00754  -0.00754   2.06238
   R16        2.06402  -0.00279   0.00000  -0.00800  -0.00800   2.05602
   R17        2.06898  -0.00191   0.00000  -0.00553  -0.00553   2.06346
   R18        2.84203  -0.00050   0.00000  -0.00154  -0.00154   2.84049
   R19        2.84681  -0.00076   0.00000  -0.00239  -0.00239   2.84442
   R20        2.54610  -0.00317   0.00000  -0.00567  -0.00567   2.54043
   R21        2.06950  -0.00397   0.00000  -0.01151  -0.01151   2.05800
   R22        2.06912  -0.00199   0.00000  -0.00577  -0.00577   2.06335
   R23        2.06918  -0.00201   0.00000  -0.00582  -0.00582   2.06336
   R24        2.06005  -0.00198   0.00000  -0.00563  -0.00563   2.05442
   R25        2.84516  -0.00153   0.00000  -0.00478  -0.00478   2.84038
   R26        2.07382  -0.00240   0.00000  -0.00699  -0.00699   2.06683
   R27        2.06906  -0.00274   0.00000  -0.00793  -0.00793   2.06113
    A1        1.82989   0.00207   0.00000   0.02249   0.02232   1.85221
    A2        1.90266  -0.00070   0.00000  -0.00275  -0.00274   1.89992
    A3        1.92001  -0.00194   0.00000  -0.01718  -0.01721   1.90280
    A4        1.93013   0.00043   0.00000   0.00928   0.00931   1.93944
    A5        1.91840  -0.00278   0.00000  -0.02025  -0.02028   1.89811
    A6        1.95840   0.00283   0.00000   0.00909   0.00913   1.96753
    A7        2.00833   0.00237   0.00000   0.00967   0.00910   2.01743
    A8        2.17069  -0.00488   0.00000  -0.01894  -0.01947   2.15121
    A9        2.10399   0.00253   0.00000   0.01037   0.00980   2.11378
   A10        1.92815   0.00226   0.00000   0.01208   0.01211   1.94025
   A11        1.92483   0.00165   0.00000   0.00901   0.00903   1.93385
   A12        1.95926  -0.00262   0.00000  -0.01308  -0.01304   1.94622
   A13        1.89487  -0.00306   0.00000  -0.02465  -0.02465   1.87022
   A14        1.87706   0.00055   0.00000   0.00559   0.00562   1.88268
   A15        1.87751   0.00110   0.00000   0.01022   0.01025   1.88776
   A16        2.06974  -0.00194   0.00000  -0.01342  -0.01343   2.05630
   A17        2.22509  -0.00187   0.00000  -0.00836  -0.00838   2.21671
   A18        1.98822   0.00382   0.00000   0.02195   0.02193   2.01015
   A19        1.91722   0.00395   0.00000   0.02331   0.02328   1.94050
   A20        1.91011   0.00236   0.00000   0.01550   0.01545   1.92556
   A21        1.98123  -0.00299   0.00000  -0.01841  -0.01832   1.96290
   A22        1.88715  -0.00309   0.00000  -0.01885  -0.01902   1.86813
   A23        1.89284  -0.00095   0.00000  -0.00760  -0.00751   1.88534
   A24        1.87266   0.00053   0.00000   0.00496   0.00503   1.87769
   A25        1.86376   0.00200   0.00000   0.01696   0.01697   1.88073
   A26        1.89064  -0.00240   0.00000  -0.02159  -0.02158   1.86907
   A27        1.92082  -0.00000   0.00000  -0.00091  -0.00089   1.91993
   A28        1.88439   0.00024   0.00000   0.00329   0.00332   1.88771
   A29        1.97972  -0.00222   0.00000  -0.01020  -0.01018   1.96954
   A30        1.92160   0.00230   0.00000   0.01167   0.01170   1.93330
   A31        1.99465   0.00147   0.00000   0.00583   0.00581   2.00046
   A32        2.18263  -0.00329   0.00000  -0.01296  -0.01298   2.16965
   A33        2.10586   0.00182   0.00000   0.00724   0.00722   2.11307
   A34        1.96054  -0.00276   0.00000  -0.01377  -0.01374   1.94681
   A35        1.92355   0.00173   0.00000   0.00868   0.00870   1.93225
   A36        1.92488   0.00221   0.00000   0.01239   0.01242   1.93730
   A37        1.87887   0.00092   0.00000   0.00788   0.00791   1.88678
   A38        1.87914   0.00092   0.00000   0.00939   0.00943   1.88857
   A39        1.89485  -0.00313   0.00000  -0.02540  -0.02539   1.86945
   A40        2.06712  -0.00167   0.00000  -0.01178  -0.01218   2.05493
   A41        2.22717  -0.00226   0.00000  -0.00996  -0.01037   2.21680
   A42        1.98877   0.00394   0.00000   0.02253   0.02211   2.01087
   A43        1.94452   0.00330   0.00000   0.01362   0.01365   1.95817
   A44        1.92095  -0.00239   0.00000  -0.01482  -0.01502   1.90594
   A45        1.92599  -0.00263   0.00000  -0.02486  -0.02492   1.90106
   A46        1.88053   0.00061   0.00000   0.01711   0.01715   1.89769
   A47        1.94655  -0.00053   0.00000  -0.00240  -0.00235   1.94420
   A48        1.84196   0.00154   0.00000   0.01186   0.01160   1.85355
    D1        0.63962  -0.00059   0.00000   0.02154   0.02130   0.66092
    D2       -2.48156  -0.00156   0.00000  -0.04066  -0.04046  -2.52202
    D3        2.64268   0.00174   0.00000   0.05214   0.05193   2.69461
    D4       -0.47850   0.00076   0.00000  -0.01006  -0.00983  -0.48832
[...]
                 (A) (A) (A) (A) (A) (A) (A) (A) (A) (A) (A) (A)
                 (A) (A) (A) (A) (A) (A) (A) (A) (A) (A) (A) (A)
                 (A) (A) (A) (A) (A) (A) (A) (A) (A) (A) (A) (A)
                 (A) (A) (A) (A) (A) (A) (A) (A) (A) (A) (A) (A)
                 (A) (A) (A) (A) (A) (A) (A) (A) (A) (A) (A) (A)
                 (A) (A) (A) (A) (A) (A) (A) (A) (A) (A) (A) (A)
                 (A) (A) (A) (A) (A) (A) (A) (A) (A) (A) (A) (A)
                 (A) (A) (A) (A) (A) (A) (A) (A) (A) (A) (A) (A)
                 (A) (A) (A) (A) (A) (A) (A) (A) (A) (A) (A) (A)
                 (A) (A) (A) (A) (A) (A) (A) (A) (A) (A) (A) (A)
                 (A) (A) (A) (A) (A) (A) (A) (A) (A) (A) (A) (A)
                 (A) (A) (A) (A) (A) (A) (A) (A) (A) (A) (A) (A)
                 (A) (A) (A) (A) (A) (A) (A) (A) (A) (A) (A) (A)
                 (A) (A) (A) (A) (A) (A) (A) (A) (A)
 The electronic state is 1-A.
 Alpha  occ. eigenvalues --  -11.23020 -11.22460 -11.21868 -11.21730 -11.21712
 Alpha  occ. eigenvalues --  -11.21539 -11.21506 -11.21436 -11.21417 -11.21348
 Alpha  occ. eigenvalues --   -1.10821  -1.08492  -1.01823  -0.98143  -0.93838
 Alpha  occ. eigenvalues --   -0.91939  -0.86963  -0.82855  -0.70494  -0.69519
 Alpha  occ. eigenvalues --   -0.64988  -0.61512  -0.60591  -0.58878  -0.58366
 Alpha  occ. eigenvalues --   -0.56774  -0.55298  -0.54966  -0.53295  -0.52261
 Alpha  occ. eigenvalues --   -0.51859  -0.51173  -0.50832  -0.49581  -0.48519
 Alpha  occ. eigenvalues --   -0.46073  -0.44624  -0.33371  -0.31514
 Alpha virt. eigenvalues --    0.18142   0.19779   0.22152   0.24486   0.25192
 Alpha virt. eigenvalues --    0.27439   0.28535   0.28922   0.30318   0.30811
 Alpha virt. eigenvalues --    0.31477   0.32261   0.33202   0.33794   0.34383
 Alpha virt. eigenvalues --    0.35458   0.36114   0.36962   0.39185   0.40602
 Alpha virt. eigenvalues --    0.41328   0.42631   0.43685   0.44253   0.45395
 Alpha virt. eigenvalues --    0.51702   0.54378   0.61070   0.62576   0.70520
 Alpha virt. eigenvalues --    0.71073   0.72196   0.73768   0.76075   0.76177
 Alpha virt. eigenvalues --    0.76620   0.79010   0.79474   0.81070   0.82306
 Alpha virt. eigenvalues --    0.83713   0.85579   0.89117   0.91091   0.91343
 Alpha virt. eigenvalues --    0.92820   0.94745   0.97065   0.98284   0.98818
 Alpha virt. eigenvalues --    0.99710   1.00468   1.01911   1.03844   1.06577
 Alpha virt. eigenvalues --    1.08019   1.08221   1.09393   1.11664   1.12687
 Alpha virt. eigenvalues --    1.13026   1.13870   1.14856   1.15402   1.16045
 Alpha virt. eigenvalues --    1.16257   1.16619   1.18722   1.19116   1.20671
 Alpha virt. eigenvalues --    1.20953   1.23032   1.23885   1.25765   1.28153
 Alpha virt. eigenvalues --    1.34331   1.41723   1.42153   1.44890   1.46395
 Alpha virt. eigenvalues --    1.48456   1.54136   1.55360   1.57256   1.58165
 Alpha virt. eigenvalues --    1.61459   1.63397   1.66485   1.69046   1.69645
 Alpha virt. eigenvalues --    1.73917   1.82243   1.91111   1.93363   1.96231
 Alpha virt. eigenvalues --    1.98688   2.01467   2.02277   2.03942   2.08565
 Alpha virt. eigenvalues --    2.09706   2.10748   2.11744   2.13037   2.14903
 Alpha virt. eigenvalues --    2.15780   2.16940   2.19854   2.23666   2.28347
 Alpha virt. eigenvalues --    2.29590   2.30325   2.33235   2.35347   2.35688
 Alpha virt. eigenvalues --    2.35978   2.36098   2.38923   2.40264   2.41259
 Alpha virt. eigenvalues --    2.42195   2.43169   2.44154   2.45371   2.46084
 Alpha virt. eigenvalues --    2.47201   2.49167   2.49622   2.51174   2.54099
 Alpha virt. eigenvalues --    2.57315   2.58365   2.61888   2.63241   2.64107
 Alpha virt. eigenvalues --    2.67127   2.68175   2.71776   2.73352   2.73474
 Alpha virt. eigenvalues --    2.75815   2.77410   2.80796   2.82634   2.85354
 Alpha virt. eigenvalues --    2.87137   2.89441   2.92178   2.93739   2.94867
 Alpha virt. eigenvalues --    2.97869   2.99094   3.00960   3.02677   3.05807
 Alpha virt. eigenvalues --    3.06402   3.07703   3.09315   3.13762   3.17093
 Alpha virt. eigenvalues --    3.17589   3.19238   3.20046   3.21242   3.22334
 Alpha virt. eigenvalues --    3.24167   3.25050   3.26607   3.27420   3.37866
 Alpha virt. eigenvalues --    3.40355   3.46023   3.46902   3.56200   3.58183
 Alpha virt. eigenvalues --    3.59499   3.62406   3.67928   3.75494   3.78622
 Alpha virt. eigenvalues --    3.80005   3.81570   3.82569   3.83286   3.83898
 Alpha virt. eigenvalues --    3.84750   3.86481   3.87645   3.89820   3.91558
 Alpha virt. eigenvalues --    3.97645   4.59389   4.63170   4.74472   4.82572
 Alpha virt. eigenvalues --    4.88928   4.92582   4.93409   5.07840   5.10766
 Alpha virt. eigenvalues --    5.17766
          Condensed to atoms (all electrons):
               1          2          3          4          5          6
     1  C    5.004768   0.414473   0.411714   0.337355  -0.056085   0.000011
     2  H    0.414473   0.587507  -0.028296  -0.046308  -0.004587  -0.000489
     3  H    0.411714  -0.028296   0.572983  -0.038988   0.003071  -0.000005
     4  C    0.337355  -0.046308  -0.038988   4.952603   0.351934  -0.045679
     5  C   -0.056085  -0.004587   0.003071   0.351934   4.891804   0.400946
     6  H    0.000011  -0.000489  -0.000005  -0.045679   0.400946   0.596034
     7  H   -0.003698   0.002378  -0.000034  -0.041506   0.397495  -0.037541
     8  H    0.003801   0.000106  -0.000108  -0.042765   0.407087  -0.027466
     9  C   -0.047991   0.002531  -0.001860   0.697840  -0.046054  -0.001011
    10  H    0.003272  -0.000118   0.000031  -0.037842  -0.006525   0.000135
    11  C   -0.007749   0.000160  -0.002811  -0.050271   0.003364  -0.000101
    12  H    0.000152   0.000017   0.000184  -0.000627  -0.000106  -0.000004
    13  H    0.000310  -0.000013  -0.000067  -0.000247  -0.000095   0.000017
    14  H   -0.001745   0.000030  -0.001657  -0.000691   0.000109  -0.000003
    15  C    0.000587  -0.000015   0.000200  -0.000018  -0.000000  -0.000000
    16  H    0.000130  -0.000002  -0.000135  -0.000005   0.000000   0.000000
    17  H   -0.000302  -0.000016  -0.000131  -0.000011  -0.000000   0.000000
    18  H   -0.000040   0.000000   0.000022   0.000001  -0.000000  -0.000000
    19  C   -0.004325   0.000787   0.001388   0.000041  -0.000003   0.000000
    20  C   -0.000099  -0.000004  -0.000043   0.000001  -0.000000  -0.000000
    21  H   -0.000003   0.000003  -0.000002   0.000000  -0.000000  -0.000000
    22  H   -0.000005   0.000000   0.000002   0.000000  -0.000000   0.000000
    23  H    0.000024  -0.000002  -0.000007  -0.000000   0.000000   0.000000
    24  C   -0.061827  -0.000900  -0.000504   0.006443  -0.000149  -0.000111
    25  H    0.000175   0.001011   0.000111  -0.000152   0.000010   0.000015
    26  C    0.332330  -0.046074  -0.041801  -0.055544  -0.000661   0.000609
    27  H   -0.046841  -0.001931   0.004515  -0.002075  -0.000289   0.000197
    28  H   -0.042369   0.004477  -0.003118  -0.001813   0.000243  -0.000015
               7          8          9         10         11         12
     1  C   -0.003698   0.003801  -0.047991   0.003272  -0.007749   0.000152
     2  H    0.002378   0.000106   0.002531  -0.000118   0.000160   0.000017
     3  H   -0.000034  -0.000108  -0.001860   0.000031  -0.002811   0.000184
     4  C   -0.041506  -0.042765   0.697840  -0.037842  -0.050271  -0.000627
     5  C    0.397495   0.407087  -0.046054  -0.006525   0.003364  -0.000106
     6  H   -0.037541  -0.027466  -0.001011   0.000135  -0.000101  -0.000004
     7  H    0.591921  -0.026764  -0.000373   0.000216  -0.000105   0.000017
     8  H   -0.026764   0.568858  -0.002890   0.002385   0.000132  -0.000006
     9  C   -0.000373  -0.002890   4.938971   0.404494   0.340494  -0.041523
    10  H    0.000216   0.002385   0.404494   0.558671  -0.041278  -0.001122
    11  C   -0.000105   0.000132   0.340494  -0.041278   4.900974   0.401144
    12  H    0.000017  -0.000006  -0.041523  -0.001122   0.401144   0.583648
    13  H   -0.000004  -0.000006  -0.041805  -0.001264   0.402169  -0.035462
    14  H    0.000002   0.000005  -0.043903   0.003299   0.409079  -0.027132
    15  C    0.000000  -0.000000   0.000015  -0.000000  -0.000147   0.000004
    16  H   -0.000000  -0.000000   0.000000  -0.000000  -0.000009  -0.000000
    17  H   -0.000000   0.000000  -0.000045   0.000000   0.000074  -0.000013
    18  H    0.000000   0.000000   0.000000   0.000000   0.000003   0.000000
    19  C    0.000000   0.000000  -0.000001   0.000000   0.000013  -0.000000
    20  C   -0.000000   0.000000  -0.000000   0.000000  -0.000000   0.000000
    21  H   -0.000000   0.000000  -0.000000   0.000000   0.000000  -0.000000
    22  H    0.000000   0.000000   0.000000   0.000000   0.000000   0.000000
    23  H   -0.000000  -0.000000   0.000000  -0.000000  -0.000000  -0.000000
    24  C    0.000004   0.000004   0.000114   0.000002  -0.000031   0.000002
    25  H   -0.000001  -0.000000  -0.000002  -0.000000   0.000000   0.000000
    26  C    0.000086  -0.000109  -0.004911  -0.000113   0.000577  -0.000037
    27  H    0.000058  -0.000050   0.000760   0.000001  -0.000033  -0.000000
    28  H    0.000006  -0.000005   0.001406  -0.000046  -0.000082   0.000037
              13         14         15         16         17         18
     1  C    0.000310  -0.001745   0.000587   0.000130  -0.000302  -0.000040
     2  H   -0.000013   0.000030  -0.000015  -0.000002  -0.000016   0.000000
     3  H   -0.000067  -0.001657   0.000200  -0.000135  -0.000131   0.000022
     4  C   -0.000247  -0.000691  -0.000018  -0.000005  -0.000011   0.000001
     5  C   -0.000095   0.000109  -0.000000   0.000000  -0.000000  -0.000000
     6  H    0.000017  -0.000003  -0.000000   0.000000   0.000000  -0.000000
     7  H   -0.000004   0.000002   0.000000  -0.000000  -0.000000   0.000000
     8  H   -0.000006   0.000005  -0.000000  -0.000000   0.000000   0.000000
     9  C   -0.041805  -0.043903   0.000015   0.000000  -0.000045   0.000000
    10  H   -0.001264   0.003299  -0.000000  -0.000000   0.000000   0.000000
    11  C    0.402169   0.409079  -0.000147  -0.000009   0.000074   0.000003
    12  H   -0.035462  -0.027132   0.000004  -0.000000  -0.000013   0.000000
    13  H    0.586720  -0.029956  -0.000015   0.000000   0.000114  -0.000000
    14  H   -0.029956   0.577164  -0.000000   0.000079   0.000412  -0.000008
    15  C   -0.000015  -0.000000   4.907254   0.401208   0.407154   0.399852
    16  H    0.000000   0.000079   0.401208   0.587442  -0.028659  -0.035759
    17  H    0.000114   0.000412   0.407154  -0.028659   0.568221  -0.026060
    18  H   -0.000000  -0.000008   0.399852  -0.035759  -0.026060   0.584669
    19  C    0.000001  -0.000026   0.350333  -0.043385  -0.037848  -0.043537
    20  C   -0.000000   0.000000  -0.064931  -0.002632   0.003725  -0.002223
    21  H   -0.000000  -0.000000   0.003785  -0.000032  -0.000113  -0.000053
    22  H   -0.000000  -0.000000  -0.001201  -0.000476  -0.000031   0.002766
    23  H    0.000000  -0.000000  -0.001975   0.002756  -0.000068  -0.000456
    24  C   -0.000009   0.000026  -0.044248  -0.000031  -0.003253  -0.000365
    25  H    0.000000  -0.000002   0.003528  -0.000121   0.000061  -0.000121
    26  C    0.000163  -0.000737  -0.008144   0.000367  -0.002069   0.000117
    27  H   -0.000000  -0.000010   0.000195  -0.000014   0.000058   0.000021
    28  H   -0.000140  -0.000475  -0.002693  -0.000076  -0.001675   0.000113
              19         20         21         22         23         24
     1  C   -0.004325  -0.000099  -0.000003  -0.000005   0.000024  -0.061827
     2  H    0.000787  -0.000004   0.000003   0.000000  -0.000002  -0.000900
     3  H    0.001388  -0.000043  -0.000002   0.000002  -0.000007  -0.000504
     4  C    0.000041   0.000001   0.000000   0.000000  -0.000000   0.006443
     5  C   -0.000003  -0.000000  -0.000000  -0.000000   0.000000  -0.000149
     6  H    0.000000  -0.000000  -0.000000   0.000000   0.000000  -0.000111
     7  H    0.000000  -0.000000  -0.000000   0.000000  -0.000000   0.000004
     8  H    0.000000   0.000000   0.000000   0.000000  -0.000000   0.000004
     9  C   -0.000001  -0.000000  -0.000000   0.000000   0.000000   0.000114
    10  H    0.000000   0.000000   0.000000   0.000000  -0.000000   0.000002
    11  C    0.000013  -0.000000   0.000000   0.000000  -0.000000  -0.000031
    12  H   -0.000000   0.000000  -0.000000   0.000000  -0.000000   0.000002
    13  H    0.000001  -0.000000  -0.000000  -0.000000   0.000000  -0.000009
    14  H   -0.000026   0.000000  -0.000000  -0.000000  -0.000000   0.000026
    15  C    0.350333  -0.064931   0.003785  -0.001201  -0.001975  -0.044248
    16  H   -0.043385  -0.002632  -0.000032  -0.000476   0.002756  -0.000031
    17  H   -0.037848   0.003725  -0.000113  -0.000031  -0.000068  -0.003253
    18  H   -0.043537  -0.002223  -0.000053   0.002766  -0.000456  -0.000365
    19  C    4.914192   0.353753  -0.041639  -0.044274  -0.043899   0.697734
    20  C    0.353753   4.900112   0.406218   0.398811   0.398238  -0.044415
    21  H   -0.041639   0.406218   0.566018  -0.026549  -0.026703  -0.002632
    22  H   -0.044274   0.398811  -0.026549   0.593607  -0.037806  -0.001270
    23  H   -0.043899   0.398238  -0.026703  -0.037806   0.594542  -0.000422
    24  C    0.697734  -0.044415  -0.002632  -0.001270  -0.000422   4.962747
    25  H   -0.038449  -0.006963   0.002335   0.000187   0.000182   0.403391
    26  C   -0.050100   0.003126   0.000148  -0.000131  -0.000068   0.338699
    27  H    0.001583  -0.000094  -0.000010   0.000009  -0.000002  -0.041395
    28  H    0.000438   0.000051   0.000007   0.000007  -0.000005  -0.044060
              25         26         27         28
     1  C    0.000175   0.332330  -0.046841  -0.042369
     2  H    0.001011  -0.046074  -0.001931   0.004477
     3  H    0.000111  -0.041801   0.004515  -0.003118
     4  C   -0.000152  -0.055544  -0.002075  -0.001813
     5  C    0.000010  -0.000661  -0.000289   0.000243
     6  H    0.000015   0.000609   0.000197  -0.000015
     7  H   -0.000001   0.000086   0.000058   0.000006
     8  H   -0.000000  -0.000109  -0.000050  -0.000005
     9  C   -0.000002  -0.004911   0.000760   0.001406
    10  H   -0.000000  -0.000113   0.000001  -0.000046
    11  C    0.000000   0.000577  -0.000033  -0.000082
    12  H    0.000000  -0.000037  -0.000000   0.000037
    13  H    0.000000   0.000163  -0.000000  -0.000140
    14  H   -0.000002  -0.000737  -0.000010  -0.000475
    15  C    0.003528  -0.008144   0.000195  -0.002693
    16  H   -0.000121   0.000367  -0.000014  -0.000076
    17  H    0.000061  -0.002069   0.000058  -0.001675
    18  H   -0.000121   0.000117   0.000021   0.000113
    19  C   -0.038449  -0.050100   0.001583   0.000438
    20  C   -0.006963   0.003126  -0.000094   0.000051
    21  H    0.002335   0.000148  -0.000010   0.000007
    22  H    0.000187  -0.000131   0.000009   0.000007
    23  H    0.000182  -0.000068  -0.000002  -0.000005
    24  C    0.403391   0.338699  -0.041395  -0.044060
    25  H    0.557389  -0.039113  -0.003424   0.003152
    26  C   -0.039113   4.979543   0.413482   0.415850
    27  H   -0.003424   0.413482   0.585267  -0.028362
    28  H    0.003152   0.415850  -0.028362   0.575347
 Mulliken charges:
               1
     1  C   -0.236021
     2  H    0.115272
     3  H    0.125346
     4  C    0.018322
     5  C   -0.341505
     6  H    0.114461
     7  H    0.117844
     8  H    0.117792
     9  C   -0.154256
    10  H    0.115801
    11  C   -0.355567
    12  H    0.120830
    13  H    0.119588
    14  H    0.116140
    15  C   -0.350727
    16  H    0.119352
    17  H    0.120474
    18  H    0.121058
    19  C    0.027222
    20  C   -0.342631
    21  H    0.119222
    22  H    0.116356
    23  H    0.115672
    24  C   -0.163542
    25  H    0.116803
    26  C   -0.235486
    27  H    0.118380
    28  H    0.123802
 Sum of Mulliken charges =  -0.00000
 Mulliken charges with hydrogens summed into heavy atoms:
               1
     1  C    0.004596
     4  C    0.018322
     5  C    0.008593
     9  C   -0.038454
    11  C    0.000991
    15  C    0.010156
    19  C    0.027222
    20  C    0.008618
    24  C   -0.046740
    26  C    0.006696
 Electronic spatial extent (au):  <R**2>=           2384.0067
 Charge=             -0.0000 electrons
 Dipole moment (field-independent basis, Debye):
    X=             -0.3027    Y=              0.1253    Z=              0.0460  Tot=              0.3308
 Quadrupole moment (field-independent basis, Debye-Ang):
   XX=            -64.3024   YY=            -63.2901   ZZ=            -67.3956
   XY=             -0.7521   XZ=             -1.2367   YZ=             -0.3487
 Traceless Quadrupole moment (field-independent basis, Debye-Ang):
   XX=              0.6937   YY=              1.7059   ZZ=             -2.3996
   XY=             -0.7521   XZ=             -1.2367   YZ=             -0.3487
 Octapole moment (field-independent basis, Debye-Ang**2):
  XXX=             -2.6682  YYY=             -2.9989  ZZZ=              0.8999  XYY=              0.6416
  XXY=              4.0909  XXZ=             -2.0918  XZZ=             -1.2120  YZZ=              1.4955
  YYZ=              0.6111  XYZ=              0.3641
 Hexadecapole moment (field-independent basis, Debye-Ang**3):
 XXXX=          -2435.7175 YYYY=           -693.4922 ZZZZ=           -166.6415 XXXY=             -2.3047
 XXXZ=            -14.7514 YYYX=             11.0526 YYYZ=             -1.4215 ZZZX=             -2.8119
 ZZZY=             -0.6410 XXYY=           -520.1248 XXZZ=           -449.2342 YYZZ=           -138.3648
 XXYZ=             -4.2785 YYXZ=             -0.5785 ZZXY=             -5.9187
 N-N= 5.190879695571D+02 E-N=-1.942888678442D+03  KE= 3.887471639952D+02
 No NMR shielding tensors so no spin-rotation constants.
 Leave Link  601 at Fri Sep 17 14:53:01 2021, MaxMem=   524288000 cpu:               0.4 elap:               0.7
 (Enter /opt/gaussian/g16_legacy/l9999.exe)
 1\1\GINC-TRUENO91\FOpt\RMP2-FC\6-31G(d,p)\C10H18\JRAMOS\17-Sep-2021\0\
 \#p opt mp2/6-31g(d,p)\\Conformer number 203. Energy MM = 23.242 kcal/
 mol\\0,1\C,0.8368390711,0.2136875301,-0.7894152248\H,0.7515721007,0.54
 97845462,-1.8268427965\H,0.6079172729,-0.85312047,-0.7949936824\C,2.23
 58637244,0.4768681554,-0.2918654632\C,2.9120278925,1.6902156802,-0.869
 828214\H,2.3040502525,2.5853679954,-0.7210241887\H,3.0548691097,1.5789
 647037,-1.9468818844\H,3.8850885254,1.8626916247,-0.4116534087\C,2.843
 5131942,-0.2743279164,0.6453742017\H,3.8435691236,0.0170041095,0.95449
 68888\C,2.2884212388,-1.4887005082,1.3258992604\H,2.9213106317,-2.3602
 191672,1.1479446343\H,2.249260848,-1.3403073661,2.4067100105\H,1.28283
 72425,-1.7292615638,0.9883843235\C,-2.3178703928,-1.1617179388,0.96261
 14062\H,-2.4483067646,-2.1735224428,0.5726454831\H,-1.331791207,-1.102
 0609175,1.4162989936\H,-3.0642278803,-1.028077175,1.7489114223\C,-2.52
 11346113,-0.153958122,-0.1346432152\C,-3.8579994043,-0.230409237,-0.81
 90385936\H,-3.9507230627,0.5216804171,-1.6010373048\H,-4.6698430841,-0
 .082088294,-0.1033534742\H,-4.009140152,-1.213932393,-1.2696458902\C,-
 1.6067705828,0.7629841074,-0.5033180145\H,-1.8644223077,1.423176548,-1
 .3276931684\C,-0.2269428317,0.9370530938,0.0585188617\H,0.0153732626,2
 .0023299071,0.0998711787\H,-0.1633412091,0.5700950932,1.0836678587\\Ve
 rsion=EM64L-G16RevA.03\State=1-A\HF=-389.1567534\MP2=-390.5738646\RMSD
 =5.124e-09\RMSF=3.185e-06\Dipole=-0.0888395,-0.0698712,0.0272215\PG=C0
 1 [X(C10H18)]\\@


 STEINBACH'S GUIDELINES FOR SYSTEMS PROGRAMMING:
 NEVER TEST FOR AN ERROR CONDITION YOU DON'T KNOW HOW
 TO HANDLE.
 Job cpu time:       0 days  1 hours 20 minutes 17.5 seconds.
 Elapsed time:       0 days  1 hours 20 minutes 22.5 seconds.
 File lengths (MBytes):  RWF=     32 Int=      0 D2E=      0 Chk=      7 Scr=      1
 Normal termination of Gaussian 16 at Fri Sep 17 14:53:01 2021.
