 Entering Gaussian System, Link 0=/opt/gaussian/g16_legacy/g16
 Input=01-IsoP_406_gaussian.com
 Output=01-IsoP_406_gaussian.log
 Initial command:
 /opt/gaussian/g16_legacy/l1.exe "/scratch-local/jramos/2661418/Gau-7227.inp" -scrdir="/scratch-local/jramos/2661418/"
 Entering Link 1 = /opt/gaussian/g16_legacy/l1.exe PID=      7228.
  
 Copyright (c) 1988,1990,1992,1993,1995,1998,2003,2009,2016,
            Gaussian, Inc.  All Rights Reserved.
  
 This is part of the Gaussian(R) 16 program.  It is based on
 the Gaussian(R) 09 system (copyright 2009, Gaussian, Inc.),
 the Gaussian(R) 03 system (copyright 2003, Gaussian, Inc.),
 the Gaussian(R) 98 system (copyright 1998, Gaussian, Inc.),
 the Gaussian(R) 94 system (copyright 1995, Gaussian, Inc.),
 the Gaussian 92(TM) system (copyright 1992, Gaussian, Inc.),
 the Gaussian 90(TM) system (copyright 1990, Gaussian, Inc.),
 the Gaussian 88(TM) system (copyright 1988, Gaussian, Inc.),
 the Gaussian 86(TM) system (copyright 1986, Carnegie Mellon
 University), and the Gaussian 82(TM) system (copyright 1983,
 Carnegie Mellon University). Gaussian is a federally registered
 trademark of Gaussian, Inc.
  
 This software contains proprietary and confidential information,
 including trade secrets, belonging to Gaussian, Inc.
  
 This software is provided under written license and may be
 used, copied, transmitted, or stored only in accord with that
 written license.
  
 The following legend is applicable only to US Government
 contracts under FAR:
  
                    RESTRICTED RIGHTS LEGEND
  
 Use, reproduction and disclosure by the US Government is
 subject to restrictions as set forth in subparagraphs (a)
 and (c) of the Commercial Computer Software - Restricted
 Rights clause in FAR 52.227-19.
  
 Gaussian, Inc.
 340 Quinnipiac St., Bldg. 40, Wallingford CT 06492
  
  
 ---------------------------------------------------------------
 Warning -- This program may not be used in any manner that
 competes with the business of Gaussian, Inc. or will provide
 assistance to any competitor of Gaussian, Inc.  The licensee
 of this program is prohibited from giving any competitor of
 Gaussian, Inc. access to this program.  By using this program,
 the user acknowledges that Gaussian, Inc. is engaged in the
 business of creating and licensing software in the field of
 computational chemistry and represents and warrants to the
 licensee that it is not a competitor of Gaussian, Inc. and that
 it will not use this program in any manner prohibited above.
 ---------------------------------------------------------------
  

 Cite this work as:
 Gaussian 16, Revision A.03,
 M. J. Frisch, G. W. Trucks, H. B. Schlegel, G. E. Scuseria, 
 M. A. Robb, J. R. Cheeseman, G. Scalmani, V. Barone, 
 G. A. Petersson, H. Nakatsuji, X. Li, M. Caricato, A. V. Marenich, 
 J. Bloino, B. G. Janesko, R. Gomperts, B. Mennucci, H. P. Hratchian, 
 J. V. Ortiz, A. F. Izmaylov, J. L. Sonnenberg, D. Williams-Young, 
 F. Ding, F. Lipparini, F. Egidi, J. Goings, B. Peng, A. Petrone, 
 T. Henderson, D. Ranasinghe, V. G. Zakrzewski, J. Gao, N. Rega, 
 G. Zheng, W. Liang, M. Hada, M. Ehara, K. Toyota, R. Fukuda, 
 J. Hasegawa, M. Ishida, T. Nakajima, Y. Honda, O. Kitao, H. Nakai, 
 T. Vreven, K. Throssell, J. A. Montgomery, Jr., J. E. Peralta, 
 F. Ogliaro, M. J. Bearpark, J. J. Heyd, E. N. Brothers, K. N. Kudin, 
 V. N. Staroverov, T. A. Keith, R. Kobayashi, J. Normand, 
 K. Raghavachari, A. P. Rendell, J. C. Burant, S. S. Iyengar, 
 J. Tomasi, M. Cossi, J. M. Millam, M. Klene, C. Adamo, R. Cammi, 
 J. W. Ochterski, R. L. Martin, K. Morokuma, O. Farkas, 
 J. B. Foresman, and D. J. Fox, Gaussian, Inc., Wallingford CT, 2016.
 
 ******************************************
 Gaussian 16:  EM64L-G16RevA.03 25-Dec-2016
                17-Sep-2021 
 ******************************************
 %chk=01-IsoP_406_gaussian.chk
 %nproc=1
 Will use up to    1 processors via shared memory.
 %mem=4000Mb
 ---------------------
 #p opt mp2/6-31g(d,p)
 ---------------------
 1/18=20,19=15,38=1/1,3;
 2/9=110,12=2,17=6,18=5,40=1/2;
 3/5=1,6=6,7=101,11=9,25=1,30=1,71=1/1,2,3;
 4//1;
 5/5=2,38=5/2;
 8/6=4,10=2/1;
 9/15=2,16=-3/6;
 10/5=1/2;
 6/7=2,8=2,9=2,10=2/1;
 7/12=2/1,2,3,16;
 1/18=20,19=15/3(2);
 2/9=110/2;
 99//99;
 2/9=110/2;
 3/5=1,6=6,7=101,11=9,25=1,30=1,71=1/1,2,3;
 4/5=5,16=3,69=1/1;
 5/5=2,38=5/2;
 8/6=4,10=2/1;
 9/15=2,16=-3/6;
 10/5=1/2;
 7/12=2/1,2,3,16;
 1/18=20,19=15/3(-8);
 2/9=110/2;
 6/7=2,8=2,9=2,10=2/1;
 99//99;
 Leave Link    1 at Fri Sep 17 15:34:16 2021, MaxMem=   524288000 cpu:               0.0 elap:               0.1
 (Enter /opt/gaussian/g16_legacy/l101.exe)
 -------------------------------------------------
 Conformer number 406. Energy MM = 23.242 kcal/mol
 -------------------------------------------------
 Symbolic Z-matrix:
 Charge =  0 Multiplicity = 1
 C                    -0.879    -0.3834    0.7272 
 H                    -0.6569    0.6554    0.9994 
 H                    -0.8821   -0.9294    1.6802 
 C                    -2.2517   -0.4865    0.0949 
 C                    -2.9458   -1.8103    0.2878 
 H                    -3.0781   -2.0176    1.3548 
 H                    -3.9365   -1.8311   -0.1785 
 H                    -2.3561   -2.6197   -0.154 
 C                    -2.8565    0.5126   -0.5779 
 H                    -3.8568    0.3426   -0.9755 
 C                    -2.3058    1.8701   -0.8814 
 H                    -2.879     2.632    -0.3447 
 H                    -2.3963    2.0685   -1.9542 
 H                    -1.2515    1.9814   -0.6183 
 C                     3.8656    0.0057    0.9305 
 H                     4.6853   -0.1128    0.2142 
 H                     4.0311    0.9257    1.5006 
 H                     3.914    -0.8335    1.6323 
 C                     2.5465    0.0704    0.2056 
 C                     2.4357    1.2033   -0.7773 
 H                     3.1334    1.051    -1.6071 
 H                     1.4336    1.3183   -1.1963 
 H                     2.6845    2.151    -0.2876 
 C                     1.5765   -0.8286    0.463 
 H                     1.7662   -1.5967    1.2129 
 C                     0.2221   -0.9302   -0.1868 
 H                     0.2017   -0.4196   -1.1551 
 H                     0.036    -1.9887   -0.4087 
 
 ITRead=  0  0  0  0  0  0  0  0  0  0  0  0  0  0  0  0  0  0  0  0
 ITRead=  0  0  0  0  0  0  0  0
 MicOpt= -1 -1 -1 -1 -1 -1 -1 -1 -1 -1 -1 -1 -1 -1 -1 -1 -1 -1 -1 -1
 MicOpt= -1 -1 -1 -1 -1 -1 -1 -1
 NAtoms=     28 NQM=       28 NQMF=       0 NMMI=      0 NMMIF=      0
                NMic=       0 NMicF=      0.
                    Isotopes and Nuclear Properties:
 (Nuclear quadrupole moments (NQMom) in fm**2, nuclear magnetic moments (NMagM)
  in nuclear magnetons)

  Atom         1           2           3           4           5           6           7           8           9          10
 IAtWgt=          12           1           1          12          12           1           1           1          12           1
 AtmWgt=  12.0000000   1.0078250   1.0078250  12.0000000  12.0000000   1.0078250   1.0078250   1.0078250  12.0000000   1.0078250
 NucSpn=           0           1           1           0           0           1           1           1           0           1
 AtZEff=  -0.0000000  -0.0000000  -0.0000000  -0.0000000  -0.0000000  -0.0000000  -0.0000000  -0.0000000  -0.0000000  -0.0000000
 NQMom=    0.0000000   0.0000000   0.0000000   0.0000000   0.0000000   0.0000000   0.0000000   0.0000000   0.0000000   0.0000000
 NMagM=    0.0000000   2.7928460   2.7928460   0.0000000   0.0000000   2.7928460   2.7928460   2.7928460   0.0000000   2.7928460
 AtZNuc=   6.0000000   1.0000000   1.0000000   6.0000000   6.0000000   1.0000000   1.0000000   1.0000000   6.0000000   1.0000000

  Atom        11          12          13          14          15          16          17          18          19          20
 IAtWgt=          12           1           1           1          12           1           1           1          12          12
 AtmWgt=  12.0000000   1.0078250   1.0078250   1.0078250  12.0000000   1.0078250   1.0078250   1.0078250  12.0000000  12.0000000
 NucSpn=           0           1           1           1           0           1           1           1           0           0
 AtZEff=  -0.0000000  -0.0000000  -0.0000000  -0.0000000  -0.0000000  -0.0000000  -0.0000000  -0.0000000  -0.0000000  -0.0000000
 NQMom=    0.0000000   0.0000000   0.0000000   0.0000000   0.0000000   0.0000000   0.0000000   0.0000000   0.0000000   0.0000000
 NMagM=    0.0000000   2.7928460   2.7928460   2.7928460   0.0000000   2.7928460   2.7928460   2.7928460   0.0000000   0.0000000
 AtZNuc=   6.0000000   1.0000000   1.0000000   1.0000000   6.0000000   1.0000000   1.0000000   1.0000000   6.0000000   6.0000000

  Atom        21          22          23          24          25          26          27          28
 IAtWgt=           1           1           1          12           1          12           1           1
 AtmWgt=   1.0078250   1.0078250   1.0078250  12.0000000   1.0078250  12.0000000   1.0078250   1.0078250
 NucSpn=           1           1           1           0           1           0           1           1
 AtZEff=  -0.0000000  -0.0000000  -0.0000000  -0.0000000  -0.0000000  -0.0000000  -0.0000000  -0.0000000
 NQMom=    0.0000000   0.0000000   0.0000000   0.0000000   0.0000000   0.0000000   0.0000000   0.0000000
 NMagM=    2.7928460   2.7928460   2.7928460   0.0000000   2.7928460   0.0000000   2.7928460   2.7928460
 AtZNuc=   1.0000000   1.0000000   1.0000000   6.0000000   1.0000000   6.0000000   1.0000000   1.0000000
 Leave Link  101 at Fri Sep 17 15:34:16 2021, MaxMem=   524288000 cpu:               0.3 elap:               0.4
 (Enter /opt/gaussian/g16_legacy/l103.exe)

 GradGradGradGradGradGradGradGradGradGradGradGradGradGradGradGradGradGrad
 Berny optimization.
 Initialization pass.
                           ----------------------------
                           !    Initial Parameters    !
                           ! (Angstroms and Degrees)  !
 --------------------------                            --------------------------
 ! Name  Definition              Value          Derivative Info.                !
 --------------------------------------------------------------------------------
 ! R1    R(1,2)                  1.0966         estimate D2E/DX2                !
 ! R2    R(1,3)                  1.0983         estimate D2E/DX2                !
 ! R3    R(1,4)                  1.5148         estimate D2E/DX2                !
 ! R4    R(1,26)                 1.5319         estimate D2E/DX2                !
 ! R5    R(4,5)                  1.5071         estimate D2E/DX2                !
 ! R6    R(4,9)                  1.3478         estimate D2E/DX2                !
 ! R7    R(5,6)                  1.095          estimate D2E/DX2                !
 ! R8    R(5,7)                  1.0952         estimate D2E/DX2                !
 ! R9    R(5,8)                  1.0946         estimate D2E/DX2                !
 ! R10   R(9,10)                 1.0898         estimate D2E/DX2                !
 ! R11   R(9,11)                 1.4961         estimate D2E/DX2                !
 ! R12   R(11,12)                1.0941         estimate D2E/DX2                !
 ! R13   R(11,13)                1.0947         estimate D2E/DX2                !
 ! R14   R(11,14)                1.0923         estimate D2E/DX2                !
 ! R15   R(15,16)                1.095          estimate D2E/DX2                !
 ! R16   R(15,17)                1.0949         estimate D2E/DX2                !
 ! R17   R(15,18)                1.095          estimate D2E/DX2                !
 ! R18   R(15,19)                1.5065         estimate D2E/DX2                !
 ! R19   R(19,20)                1.5039         estimate D2E/DX2                !
 ! R20   R(19,24)                1.3474         estimate D2E/DX2                !
 ! R21   R(20,21)                1.0948         estimate D2E/DX2                !
 ! R22   R(20,22)                1.0922         estimate D2E/DX2                !
 ! R23   R(20,23)                1.0954         estimate D2E/DX2                !
 ! R24   R(24,25)                1.0901         estimate D2E/DX2                !
 ! R25   R(24,26)                1.5056         estimate D2E/DX2                !
 ! R26   R(26,27)                1.0949         estimate D2E/DX2                !
 ! R27   R(26,28)                1.0974         estimate D2E/DX2                !
 ! A1    A(2,1,3)              104.8394         estimate D2E/DX2                !
 ! A2    A(2,1,4)              110.586          estimate D2E/DX2                !
 ! A3    A(2,1,26)             109.9161         estimate D2E/DX2                !
 ! A4    A(3,1,4)              109.0129         estimate D2E/DX2                !
 ! A5    A(3,1,26)             110.0156         estimate D2E/DX2                !
 ! A6    A(4,1,26)             112.2095         estimate D2E/DX2                !
 ! A7    A(1,4,5)              115.0677         estimate D2E/DX2                !
 ! A8    A(1,4,9)              124.3692         estimate D2E/DX2                !
 ! A9    A(5,4,9)              120.5528         estimate D2E/DX2                !
 ! A10   A(4,5,6)              110.2831         estimate D2E/DX2                !
 ! A11   A(4,5,7)              112.2597         estimate D2E/DX2                !
 ! A12   A(4,5,8)              110.4716         estimate D2E/DX2                !
 ! A13   A(6,5,7)              107.5785         estimate D2E/DX2                !
 ! A14   A(6,5,8)              108.5673         estimate D2E/DX2                !
 ! A15   A(7,5,8)              107.5456         estimate D2E/DX2                !
 ! A16   A(4,9,10)             118.5791         estimate D2E/DX2                !
 ! A17   A(4,9,11)             127.4959         estimate D2E/DX2                !
 ! A18   A(10,9,11)            113.9171         estimate D2E/DX2                !
 ! A19   A(9,11,12)            109.8469         estimate D2E/DX2                !
 ! A20   A(9,11,13)            109.4398         estimate D2E/DX2                !
 ! A21   A(9,11,14)            113.5083         estimate D2E/DX2                !
 ! A22   A(12,11,13)           108.131          estimate D2E/DX2                !
 ! A23   A(12,11,14)           108.4545         estimate D2E/DX2                !
 ! A24   A(13,11,14)           107.2992         estimate D2E/DX2                !
 ! A25   A(16,15,17)           108.5655         estimate D2E/DX2                !
 ! A26   A(16,15,18)           107.6509         estimate D2E/DX2                !
 ! A27   A(16,15,19)           110.2021         estimate D2E/DX2                !
 ! A28   A(17,15,18)           107.6716         estimate D2E/DX2                !
 ! A29   A(17,15,19)           110.2917         estimate D2E/DX2                !
 ! A30   A(18,15,19)           112.3327         estimate D2E/DX2                !
 ! A31   A(15,19,20)           114.288          estimate D2E/DX2                !
 ! A32   A(15,19,24)           120.649          estimate D2E/DX2                !
 ! A33   A(20,19,24)           125.0602         estimate D2E/DX2                !
 ! A34   A(19,20,21)           110.0975         estimate D2E/DX2                !
 ! A35   A(19,20,22)           113.4293         estimate D2E/DX2                !
 ! A36   A(19,20,23)           110.0489         estimate D2E/DX2                !
 ! A37   A(21,20,22)           107.9739         estimate D2E/DX2                !
 ! A38   A(21,20,23)           108.3283         estimate D2E/DX2                !
 ! A39   A(22,20,23)           106.786          estimate D2E/DX2                !
 ! A40   A(19,24,25)           118.4429         estimate D2E/DX2                !
 ! A41   A(19,24,26)           127.6032         estimate D2E/DX2                !
 ! A42   A(25,24,26)           113.9465         estimate D2E/DX2                !
 ! A43   A(1,26,24)            111.4068         estimate D2E/DX2                !
 ! A44   A(1,26,27)            110.3534         estimate D2E/DX2                !
 ! A45   A(1,26,28)            110.0618         estimate D2E/DX2                !
 ! A46   A(24,26,27)           111.5293         estimate D2E/DX2                !
 ! A47   A(24,26,28)           107.7522         estimate D2E/DX2                !
 ! A48   A(27,26,28)           105.5355         estimate D2E/DX2                !
 ! D1    D(2,1,4,5)           -151.4134         estimate D2E/DX2                !
 ! D2    D(2,1,4,9)             27.4196         estimate D2E/DX2                !
 ! D3    D(3,1,4,5)            -36.6553         estimate D2E/DX2                !
 ! D4    D(3,1,4,9)            142.1777         estimate D2E/DX2                !
 ! D5    D(26,1,4,5)            85.4668         estimate D2E/DX2                !
 ! D6    D(26,1,4,9)           -95.7002         estimate D2E/DX2                !
 ! D7    D(2,1,26,24)           56.935          estimate D2E/DX2                !
 ! D8    D(2,1,26,27)          -67.5264         estimate D2E/DX2                !
 ! D9    D(2,1,26,28)          176.3951         estimate D2E/DX2                !
 ! D10   D(3,1,26,24)          -58.0193         estimate D2E/DX2                !
 ! D11   D(3,1,26,27)          177.5192         estimate D2E/DX2                !
 ! D12   D(3,1,26,28)           61.4407         estimate D2E/DX2                !
 ! D13   D(4,1,26,24)         -179.5691         estimate D2E/DX2                !
 ! D14   D(4,1,26,27)           55.9695         estimate D2E/DX2                !
 ! D15   D(4,1,26,28)          -60.109          estimate D2E/DX2                !
 ! D16   D(1,4,5,6)             59.4986         estimate D2E/DX2                !
 ! D17   D(1,4,5,7)            179.444          estimate D2E/DX2                !
 ! D18   D(1,4,5,8)            -60.5227         estimate D2E/DX2                !
 ! D19   D(9,4,5,6)           -119.3829         estimate D2E/DX2                !
 ! D20   D(9,4,5,7)              0.5626         estimate D2E/DX2                !
 ! D21   D(9,4,5,8)            120.5958         estimate D2E/DX2                !
 ! D22   D(1,4,9,10)          -178.6063         estimate D2E/DX2                !
 ! D23   D(1,4,9,11)             2.483          estimate D2E/DX2                !
 ! D24   D(5,4,9,10)             0.1662         estimate D2E/DX2                !
 ! D25   D(5,4,9,11)          -178.7445         estimate D2E/DX2                !
 ! D26   D(4,9,11,12)         -113.6821         estimate D2E/DX2                !
 ! D27   D(4,9,11,13)          127.7478         estimate D2E/DX2                !
 ! D28   D(4,9,11,14)            7.9195         estimate D2E/DX2                !
 ! D29   D(10,9,11,12)          67.3644         estimate D2E/DX2                !
 ! D30   D(10,9,11,13)         -51.2058         estimate D2E/DX2                !
 ! D31   D(10,9,11,14)        -171.0341         estimate D2E/DX2                !
 ! D32   D(16,15,19,20)        -59.598          estimate D2E/DX2                !
 ! D33   D(16,15,19,24)        120.9847         estimate D2E/DX2                !
 ! D34   D(17,15,19,20)         60.2541         estimate D2E/DX2                !
 ! D35   D(17,15,19,24)       -119.1632         estimate D2E/DX2                !
 ! D36   D(18,15,19,20)       -179.628          estimate D2E/DX2                !
 ! D37   D(18,15,19,24)          0.9547         estimate D2E/DX2                !
 ! D38   D(15,19,20,21)         66.5521         estimate D2E/DX2                !
 ! D39   D(15,19,20,22)       -172.3382         estimate D2E/DX2                !
 ! D40   D(15,19,20,23)        -52.7873         estimate D2E/DX2                !
 ! D41   D(24,19,20,21)       -114.0604         estimate D2E/DX2                !
 ! D42   D(24,19,20,22)          7.0494         estimate D2E/DX2                !
 ! D43   D(24,19,20,23)        126.6003         estimate D2E/DX2                !
 ! D44   D(15,19,24,25)          0.5132         estimate D2E/DX2                !
 ! D45   D(15,19,24,26)       -178.4262         estimate D2E/DX2                !
 ! D46   D(20,19,24,25)       -178.8379         estimate D2E/DX2                !
 ! D47   D(20,19,24,26)          2.2227         estimate D2E/DX2                !
 ! D48   D(19,24,26,1)        -103.3709         estimate D2E/DX2                !
 ! D49   D(19,24,26,27)         20.4266         estimate D2E/DX2                !
 ! D50   D(19,24,26,28)        135.8065         estimate D2E/DX2                !
 ! D51   D(25,24,26,1)          77.6495         estimate D2E/DX2                !
 ! D52   D(25,24,26,27)       -158.553          estimate D2E/DX2                !
 ! D53   D(25,24,26,28)        -43.1731         estimate D2E/DX2                !
 --------------------------------------------------------------------------------
 Trust Radius=3.00D-01 FncErr=1.00D-07 GrdErr=1.00D-07 EigMax=2.50D+02 EigMin=1.00D-04
 Number of steps in this run=    138 maximum allowed number of steps=    168.
 GradGradGradGradGradGradGradGradGradGradGradGradGradGradGradGradGradGrad

 Leave Link  103 at Fri Sep 17 15:34:17 2021, MaxMem=   524288000 cpu:               0.1 elap:               0.1
 (Enter /opt/gaussian/g16_legacy/l202.exe)
                          Input orientation:                          
 ---------------------------------------------------------------------
 Center     Atomic      Atomic             Coordinates (Angstroms)
 Number     Number       Type             X           Y           Z
 ---------------------------------------------------------------------
      1          6           0       -0.879000   -0.383400    0.727200
      2          1           0       -0.656900    0.655400    0.999400
      3          1           0       -0.882100   -0.929400    1.680200
      4          6           0       -2.251700   -0.486500    0.094900
      5          6           0       -2.945800   -1.810300    0.287800
      6          1           0       -3.078100   -2.017600    1.354800
      7          1           0       -3.936500   -1.831100   -0.178500
      8          1           0       -2.356100   -2.619700   -0.154000
      9          6           0       -2.856500    0.512600   -0.577900
     10          1           0       -3.856800    0.342600   -0.975500
     11          6           0       -2.305800    1.870100   -0.881400
     12          1           0       -2.879000    2.632000   -0.344700
     13          1           0       -2.396300    2.068500   -1.954200
     14          1           0       -1.251500    1.981400   -0.618300
     15          6           0        3.865600    0.005700    0.930500
     16          1           0        4.685300   -0.112800    0.214200
     17          1           0        4.031100    0.925700    1.500600
     18          1           0        3.914000   -0.833500    1.632300
     19          6           0        2.546500    0.070400    0.205600
     20          6           0        2.435700    1.203300   -0.777300
     21          1           0        3.133400    1.051000   -1.607100
     22          1           0        1.433600    1.318300   -1.196300
     23          1           0        2.684500    2.151000   -0.287600
     24          6           0        1.576500   -0.828600    0.463000
     25          1           0        1.766200   -1.596700    1.212900
     26          6           0        0.222100   -0.930200   -0.186800
     27          1           0        0.201700   -0.419600   -1.155100
     28          1           0        0.036000   -1.988700   -0.408700
 ---------------------------------------------------------------------
                    Distance matrix (angstroms):
                    1          2          3          4          5
     1  C    0.000000
     2  H    1.096598   0.000000
     3  H    1.098333   1.739481   0.000000
     4  C    1.514839   2.159964   2.141294   0.000000
     5  C    2.549662   3.438766   2.640761   1.507127   0.000000
     6  H    2.810789   3.624010   2.472343   2.148151   1.094973
     7  H    3.502061   4.280877   3.687436   2.172843   1.095151
     8  H    2.821237   3.865733   2.897254   2.150208   1.094560
     9  C    2.533102   2.710444   3.328158   1.347829   2.480580
    10  H    3.506217   3.773252   4.185638   2.099883   2.657222
    11  C    3.114741   2.780607   4.052890   2.551402   3.914329
    12  H    3.773805   3.263630   4.557565   3.211198   4.487599
    13  H    3.937502   3.707576   4.948643   3.278375   4.513713
    14  H    2.746162   2.174575   3.727240   2.756734   4.250724
    15  C    4.764867   4.569449   4.896643   6.193694   7.078565
    16  H    5.594446   5.453968   5.814803   6.948083   7.817967
    17  H    5.140133   4.722458   5.254825   6.591197   7.591687
    18  H    4.898433   4.848764   4.797298   6.363950   7.058235
    19  C    3.494575   3.351733   3.863851   4.831678   5.805958
    20  C    3.970941   3.608467   4.647097   5.058446   6.259135
    21  H    4.858581   4.617003   5.554509   5.853205   6.981000
    22  H    3.455974   3.103341   4.323063   4.301853   5.582995
    23  H    4.489046   3.880482   5.107028   5.609704   6.908202
    24  C    2.509479   2.734604   2.745260   3.861042   4.630942
    25  H    2.950438   3.314959   2.770767   4.315784   4.806701
    26  C    1.531929   2.166527   2.169089   2.529014   3.321959
    27  H    2.170778   2.556304   3.077896   2.754296   3.731322
    28  H    2.168982   3.074755   2.515656   2.782766   3.067258
                    6          7          8          9         10
     6  H    0.000000
     7  H    1.767100   0.000000
     8  H    1.777719   1.766396   0.000000
     9  C    3.191606   2.611293   3.200218   0.000000
    10  H    3.406936   2.316578   3.420846   1.089764   0.000000
    11  C    4.550961   4.105135   4.548620   1.496058   2.178925
    12  H    4.954465   4.589683   5.281112   2.132310   2.568142
    13  H    5.301938   4.553263   5.022107   2.127630   2.463665
    14  H    4.818879   4.683781   4.754560   2.176013   3.098523
    15  C    7.244912   8.091754   6.839475   6.907883   7.961269
    16  H    8.074628   8.800125   7.483411   7.609027   8.636565
    17  H    7.695778   8.596626   7.490253   7.206237   8.287946
    18  H    7.097081   8.118162   6.759847   7.248216   8.280650
    19  C    6.108726   6.767017   5.603699   5.477392   6.517004
    20  C    6.732164   7.083154   6.161589   5.340806   6.354183
    21  H    7.534712   7.767296   6.761668   6.101478   7.054335
    22  H    6.163747   6.308138   5.563817   4.408688   5.384150
    23  H    7.299470   7.727009   6.941547   5.785439   6.821446
    24  C    4.886136   5.640009   4.365097   4.746976   5.741232
    25  H    4.864621   5.874668   4.461872   5.387529   6.337831
    26  C    3.801354   4.255073   3.082629   3.422340   4.345054
    27  H    4.428351   4.480042   3.519230   3.248807   4.133355
    28  H    3.578881   3.982284   2.487001   3.827752   4.572758
                   11         12         13         14         15
    11  C    0.000000
    12  H    1.094119   0.000000
    13  H    1.094739   1.772293   0.000000
    14  H    1.092318   1.773949   1.761472   0.000000
    15  C    6.696652   7.349368   7.196390   5.699727   0.000000
    16  H    7.348994   8.066284   7.720692   6.350144   1.095005
    17  H    6.835358   7.352964   7.386007   5.788791   1.094899
    18  H    7.232845   7.878012   7.816935   6.298512   1.095044
    19  C    5.288223   6.025004   5.752253   4.330766   1.506549
    20  C    4.789288   5.520359   5.047959   3.771759   2.528921
    21  H    5.548194   6.343672   5.633238   4.590285   2.840455
    22  H    3.792988   4.587979   3.975594   2.825517   3.487237
    23  H    5.033349   5.584546   5.347793   3.953508   2.735156
    24  C    4.915551   5.699089   5.478977   4.130726   2.480845
    25  H    5.743342   6.471932   6.386753   5.026192   2.656109
    26  C    3.835939   4.725571   4.355677   3.291672   3.924202
    27  H    3.406640   4.411318   3.684943   2.857402   4.237307
    28  H    4.538481   5.463716   4.976497   4.178909   4.520722
                   16         17         18         19         20
    16  H    0.000000
    17  H    1.778000   0.000000
    18  H    1.767857   1.768005   0.000000
    19  C    2.146649   2.147696   2.173146   0.000000
    20  C    2.788529   2.794851   3.484264   1.503939   0.000000
    21  H    2.660819   3.237185   3.828105   2.142874   1.094782
    22  H    3.822448   3.764892   4.334006   2.182000   1.092241
    23  H    3.062645   2.551931   3.755653   2.142705   1.095373
    24  C    3.199829   3.190493   2.613655   1.347351   2.530847
    25  H    3.423522   3.402212   2.317631   2.098272   3.499875
    26  C    4.555118   4.560720   4.116868   2.560862   3.130581
    27  H    4.698061   4.850451   4.660696   2.754939   2.786986
    28  H    5.052029   5.300941   4.532003   3.304522   4.010398
                   21         22         23         24         25
    21  H    0.000000
    22  H    1.769047   0.000000
    23  H    1.775554   1.756097   0.000000
    24  C    3.200336   2.717145   3.266356   0.000000
    25  H    4.102676   3.796326   4.140052   1.090098   0.000000
    26  C    3.797114   2.746375   3.945550   1.505643   2.188065
    27  H    3.310866   2.130627   3.677613   2.162314   3.072564
    28  H    4.502202   3.675575   4.915927   2.116325   2.403506
                   26         27         28
    26  C    0.000000
    27  H    1.094867   0.000000
    28  H    1.097404   1.745464   0.000000
 Stoichiometry    C10H18
 Framework group  C1[X(C10H18)]
 Deg. of freedom    78
 Full point group                 C1      NOp   1
 Largest Abelian subgroup         C1      NOp   1
 Largest concise Abelian subgroup C1      NOp   1
                         Standard orientation:                         
 ---------------------------------------------------------------------
 Center     Atomic      Atomic             Coordinates (Angstroms)
 Number     Number       Type             X           Y           Z
 ---------------------------------------------------------------------
      1          6           0       -0.793758   -0.586542    0.589117
      2          1           0       -0.484594    0.235238    1.246096
      3          1           0       -0.745957   -1.484298    1.220055
      4          6           0       -2.220920   -0.387003    0.122071
      5          6           0       -2.975626   -1.654995   -0.184601
      6          1           0       -3.025212   -2.291758    0.704803
      7          1           0       -4.003203   -1.458207   -0.508197
      8          1           0       -2.478638   -2.212245   -0.984937
      9          6           0       -2.820171    0.813935   -0.001583
     10          1           0       -3.860412    0.846674   -0.324712
     11          6           0       -2.215762    2.161903    0.234761
     12          1           0       -2.690855    2.635668    1.099012
     13          1           0       -2.388732    2.797185   -0.639854
     14          1           0       -1.137409    2.131890    0.406260
     15          6           0        3.965093   -0.407955    0.429732
     16          1           0        4.709052   -0.227442   -0.353196
     17          1           0        4.237100    0.181219    1.311599
     18          1           0        4.023666   -1.466001    0.705831
     19          6           0        2.593364   -0.018222   -0.056229
     20          6           0        2.465946    1.425971   -0.456110
     21          1           0        3.076454    1.626143   -1.342540
     22          1           0        1.439628    1.725981   -0.678945
     23          1           0        2.815336    2.072710    0.355985
     24          6           0        1.596357   -0.923562   -0.097363
     25          1           0        1.804066   -1.940165    0.236835
     26          6           0        0.185926   -0.715599   -0.581512
     27          1           0        0.111217    0.156996   -1.238573
     28          1           0       -0.084200   -1.577174   -1.205224
 ---------------------------------------------------------------------
 Rotational constants (GHZ):           2.2180815           0.5802372           0.4854265
 Leave Link  202 at Fri Sep 17 15:34:17 2021, MaxMem=   524288000 cpu:               0.1 elap:               0.1
 (Enter /opt/gaussian/g16_legacy/l301.exe)
 Standard basis: 6-31G(d,p) (6D, 7F)
 Ernie: Thresh=  0.10000D-02 Tol=  0.10000D-05 Strict=F.
 There are   240 symmetry adapted cartesian basis functions of A   symmetry.
 There are   240 symmetry adapted basis functions of A   symmetry.
   240 basis functions,   406 primitive gaussians,   240 cartesian basis functions
    39 alpha electrons       39 beta electrons
       nuclear repulsion energy       516.4362458498 Hartrees.
 IExCor=    0 DFT=F Ex=HF Corr=None ExCW=0 ScaHFX=  1.000000
 ScaDFX=  1.000000  1.000000  1.000000  1.000000 ScalE2=  1.000000  1.000000
 IRadAn=      5 IRanWt=     -1 IRanGd=            0 ICorTp=0 IEmpDi=  4
 NAtoms=   28 NActive=   28 NUniq=   28 SFac= 1.00D+00 NAtFMM=   60 NAOKFM=F Big=F
 Integral buffers will be    131072 words long.
 Raffenetti 1 integral format.
 Two-electron integral symmetry is turned on.
 Leave Link  301 at Fri Sep 17 15:34:17 2021, MaxMem=   524288000 cpu:               0.1 elap:               0.2
 (Enter /opt/gaussian/g16_legacy/l302.exe)
 NPDir=0 NMtPBC=     1 NCelOv=     1 NCel=       1 NClECP=     1 NCelD=      1
         NCelK=      1 NCelE2=     1 NClLst=     1 CellRange=     0.0.
 One-electron integrals computed using PRISM.
 One-electron integral symmetry used in STVInt
 NBasis=   240 RedAO= T EigKep=  2.10D-03  NBF=   240
 NBsUse=   240 1.00D-06 EigRej= -1.00D+00 NBFU=   240
 Leave Link  302 at Fri Sep 17 15:34:18 2021, MaxMem=   524288000 cpu:               0.4 elap:               0.6
 (Enter /opt/gaussian/g16_legacy/l303.exe)
 DipDrv:  MaxL=1.
 Leave Link  303 at Fri Sep 17 15:34:18 2021, MaxMem=   524288000 cpu:               0.1 elap:               0.1
 (Enter /opt/gaussian/g16_legacy/l401.exe)
 ExpMin= 1.61D-01 ExpMax= 3.05D+03 ExpMxC= 4.57D+02 IAcc=3 IRadAn=         5 AccDes= 0.00D+00
 Harris functional with IExCor=  205 and IRadAn=       5 diagonalized for initial guess.
 HarFok:  IExCor=  205 AccDes= 0.00D+00 IRadAn=         5 IDoV= 1 UseB2=F ITyADJ=14
 ICtDFT=  3500011 ScaDFX=  1.000000  1.000000  1.000000  1.000000
 FoFCou: FMM=F IPFlag=           0 FMFlag=      100000 FMFlg1=           0
         NFxFlg=           0 DoJE=T BraDBF=F KetDBF=T FulRan=T
         wScrn=  0.000000 ICntrl=       500 IOpCl=  0 I1Cent=   200000004 NGrid=           0
         NMat0=    1 NMatS0=      1 NMatT0=    0 NMatD0=    1 NMtDS0=    0 NMtDT0=    0
 Petite list used in FoFCou.
 Harris En= -390.109906657312    
 JPrj=0 DoOrth=F DoCkMO=F.
 Leave Link  401 at Fri Sep 17 15:34:31 2021, MaxMem=   524288000 cpu:              12.4 elap:              12.7
 (Enter /opt/gaussian/g16_legacy/l502.exe)
 Keep R1 ints in memory in canonical form, NReq=425198025.
 FoFCou: FMM=F IPFlag=           0 FMFlag=           0 FMFlg1=           0
         NFxFlg=           0 DoJE=F BraDBF=F KetDBF=F FulRan=T
         wScrn=  0.000000 ICntrl=       600 IOpCl=  0 I1Cent=           0 NGrid=           0
         NMat0=    1 NMatS0=  28920 NMatT0=    0 NMatD0=    1 NMtDS0=    0 NMtDT0=    0
 Symmetry not used in FoFCou.
 Two-electron integral symmetry not used.
 Closed shell SCF:
 Using DIIS extrapolation, IDIIS=  1040.
 NGot=   524288000 LenX=   105970886 LenY=   105912845
 Requested convergence on RMS density matrix=1.00D-08 within 128 cycles.
 Requested convergence on MAX density matrix=1.00D-06.
 Requested convergence on             energy=1.00D-06.
 No special actions if energy rises.

 Cycle   1  Pass 1  IDiag  1:
 E= -388.533175316248    
 DIIS: error= 5.21D-02 at cycle   1 NSaved=   1.
 NSaved= 1 IEnMin= 1 EnMin= -388.533175316248     IErMin= 1 ErrMin= 5.21D-02
 ErrMax= 5.21D-02  0.00D+00 EMaxC= 1.00D-01 BMatC= 8.07D-01 BMatP= 8.07D-01
 IDIUse=3 WtCom= 4.79D-01 WtEn= 5.21D-01
 Coeff-Com:  0.100D+01
 Coeff-En:   0.100D+01
 Coeff:      0.100D+01
 Gap=     0.508 Goal=   None    Shift=    0.000
 GapD=    0.508 DampG=2.000 DampE=0.500 DampFc=1.0000 IDamp=-1.
 RMSDP=4.00D-03 MaxDP=1.14D-01              OVMax= 1.33D-01

 Cycle   2  Pass 1  IDiag  1:
 E= -389.073876929386     Delta-E=       -0.540701613138 Rises=F Damp=F
 DIIS: error= 1.59D-02 at cycle   2 NSaved=   2.
 NSaved= 2 IEnMin= 2 EnMin= -389.073876929386     IErMin= 2 ErrMin= 1.59D-02
 ErrMax= 1.59D-02  0.00D+00 EMaxC= 1.00D-01 BMatC= 8.66D-02 BMatP= 8.07D-01
 IDIUse=3 WtCom= 8.41D-01 WtEn= 1.59D-01
 Coeff-Com:  0.183D+00 0.817D+00
 Coeff-En:   0.000D+00 0.100D+01
 Coeff:      0.154D+00 0.846D+00
 Gap=     0.549 Goal=   None    Shift=    0.000
 RMSDP=1.63D-03 MaxDP=3.04D-02 DE=-5.41D-01 OVMax= 4.61D-02

 Cycle   3  Pass 1  IDiag  1:
 E= -389.151436932693     Delta-E=       -0.077560003308 Rises=F Damp=F
 DIIS: error= 3.43D-03 at cycle   3 NSaved=   3.
 NSaved= 3 IEnMin= 3 EnMin= -389.151436932693     IErMin= 3 ErrMin= 3.43D-03
 ErrMax= 3.43D-03  0.00D+00 EMaxC= 1.00D-01 BMatC= 3.14D-03 BMatP= 8.66D-02
 IDIUse=3 WtCom= 9.66D-01 WtEn= 3.43D-02
 Coeff-Com: -0.245D-01 0.106D+00 0.919D+00
 Coeff-En:   0.000D+00 0.000D+00 0.100D+01
 Coeff:     -0.236D-01 0.102D+00 0.921D+00
 Gap=     0.499 Goal=   None    Shift=    0.000
 RMSDP=2.59D-04 MaxDP=7.15D-03 DE=-7.76D-02 OVMax= 1.01D-02

 Cycle   4  Pass 1  IDiag  1:
 E= -389.155062413682     Delta-E=       -0.003625480989 Rises=F Damp=F
 DIIS: error= 5.31D-04 at cycle   4 NSaved=   4.
 NSaved= 4 IEnMin= 4 EnMin= -389.155062413682     IErMin= 4 ErrMin= 5.31D-04
 ErrMax= 5.31D-04  0.00D+00 EMaxC= 1.00D-01 BMatC= 9.29D-05 BMatP= 3.14D-03
 IDIUse=3 WtCom= 9.95D-01 WtEn= 5.31D-03
 Coeff-Com: -0.424D-02-0.189D-02 0.950D-01 0.911D+00
 Coeff-En:   0.000D+00 0.000D+00 0.000D+00 0.100D+01
 Coeff:     -0.422D-02-0.188D-02 0.945D-01 0.912D+00
 Gap=     0.499 Goal=   None    Shift=    0.000
 RMSDP=7.39D-05 MaxDP=1.49D-03 DE=-3.63D-03 OVMax= 3.14D-03

 Cycle   5  Pass 1  IDiag  1:
 E= -389.155186752725     Delta-E=       -0.000124339043 Rises=F Damp=F
 DIIS: error= 1.63D-04 at cycle   5 NSaved=   5.
 NSaved= 5 IEnMin= 5 EnMin= -389.155186752725     IErMin= 5 ErrMin= 1.63D-04
 ErrMax= 1.63D-04  0.00D+00 EMaxC= 1.00D-01 BMatC= 1.60D-05 BMatP= 9.29D-05
 IDIUse=3 WtCom= 9.98D-01 WtEn= 1.63D-03
 Coeff-Com:  0.241D-02-0.152D-01-0.102D+00 0.176D+00 0.939D+00
 Coeff-En:   0.000D+00 0.000D+00 0.000D+00 0.000D+00 0.100D+01
 Coeff:      0.241D-02-0.152D-01-0.102D+00 0.175D+00 0.939D+00
 Gap=     0.500 Goal=   None    Shift=    0.000
 RMSDP=3.00D-05 MaxDP=6.57D-04 DE=-1.24D-04 OVMax= 9.23D-04

 Cycle   6  Pass 1  IDiag  1:
 E= -389.155208236947     Delta-E=       -0.000021484222 Rises=F Damp=F
 DIIS: error= 3.58D-05 at cycle   6 NSaved=   6.
 NSaved= 6 IEnMin= 6 EnMin= -389.155208236947     IErMin= 6 ErrMin= 3.58D-05
 ErrMax= 3.58D-05  0.00D+00 EMaxC= 1.00D-01 BMatC= 5.50D-07 BMatP= 1.60D-05
 IDIUse=1 WtCom= 1.00D+00 WtEn= 0.00D+00
 Coeff-Com:  0.720D-03-0.335D-02-0.261D-01-0.433D-02 0.177D+00 0.856D+00
 Coeff:      0.720D-03-0.335D-02-0.261D-01-0.433D-02 0.177D+00 0.856D+00
 Gap=     0.500 Goal=   None    Shift=    0.000
 RMSDP=5.30D-06 MaxDP=1.61D-04 DE=-2.15D-05 OVMax= 3.23D-04

 Cycle   7  Pass 1  IDiag  1:
 E= -389.155209078001     Delta-E=       -0.000000841055 Rises=F Damp=F
 DIIS: error= 1.03D-05 at cycle   7 NSaved=   7.
 NSaved= 7 IEnMin= 7 EnMin= -389.155209078001     IErMin= 7 ErrMin= 1.03D-05
 ErrMax= 1.03D-05  0.00D+00 EMaxC= 1.00D-01 BMatC= 5.44D-08 BMatP= 5.50D-07
 IDIUse=1 WtCom= 1.00D+00 WtEn= 0.00D+00
 Coeff-Com: -0.493D-04 0.463D-03 0.301D-02-0.105D-01-0.468D-01 0.145D+00
 Coeff-Com:  0.909D+00
 Coeff:     -0.493D-04 0.463D-03 0.301D-02-0.105D-01-0.468D-01 0.145D+00
 Coeff:      0.909D+00
 Gap=     0.500 Goal=   None    Shift=    0.000
 RMSDP=1.71D-06 MaxDP=4.10D-05 DE=-8.41D-07 OVMax= 8.42D-05

 Cycle   8  Pass 1  IDiag  1:
 E= -389.155209166835     Delta-E=       -0.000000088834 Rises=F Damp=F
 DIIS: error= 3.51D-06 at cycle   8 NSaved=   8.
 NSaved= 8 IEnMin= 8 EnMin= -389.155209166835     IErMin= 8 ErrMin= 3.51D-06
 ErrMax= 3.51D-06  0.00D+00 EMaxC= 1.00D-01 BMatC= 5.09D-09 BMatP= 5.44D-08
 IDIUse=1 WtCom= 1.00D+00 WtEn= 0.00D+00
 Coeff-Com: -0.581D-04 0.249D-03 0.208D-02 0.314D-02-0.171D-01-0.803D-01
 Coeff-Com: -0.122D+00 0.121D+01
 Coeff:     -0.581D-04 0.249D-03 0.208D-02 0.314D-02-0.171D-01-0.803D-01
 Coeff:     -0.122D+00 0.121D+01
 Gap=     0.500 Goal=   None    Shift=    0.000
 RMSDP=7.85D-07 MaxDP=2.40D-05 DE=-8.88D-08 OVMax= 5.80D-05

 Cycle   9  Pass 1  IDiag  1:
 E= -389.155209182695     Delta-E=       -0.000000015860 Rises=F Damp=F
 DIIS: error= 1.46D-06 at cycle   9 NSaved=   9.
 NSaved= 9 IEnMin= 9 EnMin= -389.155209182695     IErMin= 9 ErrMin= 1.46D-06
 ErrMax= 1.46D-06  0.00D+00 EMaxC= 1.00D-01 BMatC= 7.38D-10 BMatP= 5.09D-09
 IDIUse=1 WtCom= 1.00D+00 WtEn= 0.00D+00
 Coeff-Com:  0.925D-05-0.688D-04-0.479D-03 0.144D-02 0.384D-02 0.481D-04
 Coeff-Com: -0.865D-01-0.119D+00 0.120D+01
 Coeff:      0.925D-05-0.688D-04-0.479D-03 0.144D-02 0.384D-02 0.481D-04
 Coeff:     -0.865D-01-0.119D+00 0.120D+01
 Gap=     0.500 Goal=   None    Shift=    0.000
 RMSDP=2.98D-07 MaxDP=1.24D-05 DE=-1.59D-08 OVMax= 2.71D-05

 Cycle  10  Pass 1  IDiag  1:
 E= -389.155209185100     Delta-E=       -0.000000002405 Rises=F Damp=F
 DIIS: error= 3.97D-07 at cycle  10 NSaved=  10.
 NSaved=10 IEnMin=10 EnMin= -389.155209185100     IErMin=10 ErrMin= 3.97D-07
 ErrMax= 3.97D-07  0.00D+00 EMaxC= 1.00D-01 BMatC= 1.22D-10 BMatP= 7.38D-10
 IDIUse=1 WtCom= 1.00D+00 WtEn= 0.00D+00
 Coeff-Com:  0.953D-05-0.465D-04-0.370D-03-0.134D-03 0.234D-02 0.142D-01
 Coeff-Com:  0.589D-02-0.211D+00 0.144D+00 0.105D+01
 Coeff:      0.953D-05-0.465D-04-0.370D-03-0.134D-03 0.234D-02 0.142D-01
 Coeff:      0.589D-02-0.211D+00 0.144D+00 0.105D+01
 Gap=     0.500 Goal=   None    Shift=    0.000
 RMSDP=1.24D-07 MaxDP=3.06D-06 DE=-2.40D-09 OVMax= 9.87D-06

 Cycle  11  Pass 1  IDiag  1:
 E= -389.155209185431     Delta-E=       -0.000000000331 Rises=F Damp=F
 DIIS: error= 1.55D-07 at cycle  11 NSaved=  11.
 NSaved=11 IEnMin=11 EnMin= -389.155209185431     IErMin=11 ErrMin= 1.55D-07
 ErrMax= 1.55D-07  0.00D+00 EMaxC= 1.00D-01 BMatC= 9.55D-12 BMatP= 1.22D-10
 IDIUse=1 WtCom= 1.00D+00 WtEn= 0.00D+00
 Coeff-Com:  0.398D-06 0.822D-06 0.876D-06-0.149D-03-0.304D-03 0.278D-02
 Coeff-Com:  0.110D-01-0.153D-01-0.107D+00 0.163D+00 0.945D+00
 Coeff:      0.398D-06 0.822D-06 0.876D-06-0.149D-03-0.304D-03 0.278D-02
 Coeff:      0.110D-01-0.153D-01-0.107D+00 0.163D+00 0.945D+00
 Gap=     0.500 Goal=   None    Shift=    0.000
 RMSDP=2.77D-08 MaxDP=1.16D-06 DE=-3.31D-10 OVMax= 2.51D-06

 Cycle  12  Pass 1  IDiag  1:
 E= -389.155209185453     Delta-E=       -0.000000000022 Rises=F Damp=F
 DIIS: error= 3.64D-08 at cycle  12 NSaved=  12.
 NSaved=12 IEnMin=12 EnMin= -389.155209185453     IErMin=12 ErrMin= 3.64D-08
 ErrMax= 3.64D-08  0.00D+00 EMaxC= 1.00D-01 BMatC= 1.17D-12 BMatP= 9.55D-12
 IDIUse=1 WtCom= 1.00D+00 WtEn= 0.00D+00
 Coeff-Com: -0.102D-05 0.547D-05 0.429D-04 0.323D-05-0.343D-03-0.126D-02
 Coeff-Com:  0.366D-03 0.217D-01-0.321D-01-0.113D+00 0.977D-01 0.103D+01
 Coeff:     -0.102D-05 0.547D-05 0.429D-04 0.323D-05-0.343D-03-0.126D-02
 Coeff:      0.366D-03 0.217D-01-0.321D-01-0.113D+00 0.977D-01 0.103D+01
 Gap=     0.500 Goal=   None    Shift=    0.000
 RMSDP=1.18D-08 MaxDP=3.33D-07 DE=-2.19D-11 OVMax= 8.47D-07

 Cycle  13  Pass 1  IDiag  1:
 E= -389.155209185448     Delta-E=        0.000000000004 Rises=F Damp=F
 DIIS: error= 1.06D-08 at cycle  13 NSaved=  13.
 NSaved=13 IEnMin=12 EnMin= -389.155209185453     IErMin=13 ErrMin= 1.06D-08
 ErrMax= 1.06D-08  0.00D+00 EMaxC= 1.00D-01 BMatC= 5.47D-14 BMatP= 1.17D-12
 IDIUse=1 WtCom= 1.00D+00 WtEn= 0.00D+00
 Coeff-Com: -0.122D-06 0.462D-06 0.389D-05 0.136D-04-0.170D-04-0.298D-03
 Coeff-Com: -0.849D-03 0.352D-02 0.516D-02-0.212D-01-0.613D-01 0.111D+00
 Coeff-Com:  0.964D+00
 Coeff:     -0.122D-06 0.462D-06 0.389D-05 0.136D-04-0.170D-04-0.298D-03
 Coeff:     -0.849D-03 0.352D-02 0.516D-02-0.212D-01-0.613D-01 0.111D+00
 Coeff:      0.964D+00
 Gap=     0.500 Goal=   None    Shift=    0.000
 RMSDP=2.13D-09 MaxDP=7.04D-08 DE= 4.32D-12 OVMax= 1.05D-07

 SCF Done:  E(RHF) =  -389.155209185     A.U. after   13 cycles
            NFock= 13  Conv=0.21D-08     -V/T= 2.0014
 KE= 3.886261119420D+02 PE=-1.937506487687D+03 EE= 6.432889207095D+02
 Leave Link  502 at Fri Sep 17 15:35:13 2021, MaxMem=   524288000 cpu:              41.6 elap:              41.7
 (Enter /opt/gaussian/g16_legacy/l801.exe)
 ExpMin= 1.61D-01 ExpMax= 3.05D+03 ExpMxC= 4.57D+02 IAcc=3 IRadAn=         5 AccDes= 0.00D+00
 HarFok:  IExCor=  205 AccDes= 0.00D+00 IRadAn=         5 IDoV=-2 UseB2=F ITyADJ=14
 ICtDFT= 12500011 ScaDFX=  1.000000  1.000000  1.000000  1.000000
 Largest valence mixing into a core orbital is  1.98D-04
 Largest core mixing into a valence orbital is  3.52D-05
 Range of M.O.s used for correlation:    11   240
 NBasis=   240 NAE=    39 NBE=    39 NFC=    10 NFV=     0
 NROrb=    230 NOA=    29 NOB=    29 NVA=   201 NVB=   201
 Leave Link  801 at Fri Sep 17 15:35:14 2021, MaxMem=   524288000 cpu:               1.7 elap:               1.8
 (Enter /opt/gaussian/g16_legacy/l906.exe)
 Frozen-core derivative calculation, NFC=  10 NFV=   0.
 FulOut=F Deriv=T AODrv=T NAtomX=    28
   MMem=          88  MDisk=          29 MDiskD=          29
  W3Min=     2246400 MinDsk=     2795480 NBas6D=         240
 NBas2D=       29244    NTT=       28920    LW2=     2040000
    MDV=   523626386 MDiskM=       30186 NBas2p=       24383
 Fully direct method using O(ONN) memory.
 IMap=   1   2   3   4   5   6   7   8   9  10  11  12  13  14  15  16  17  18  19  20
 IMap=  21  22  23  24  25  26  27  28  29  30  31  32  33  34  35  36  37  38  39
 JobTyp=1 Pass  1:  I=  11 to  39 NPSUse=  1 ParTrn=F ParDer=F DoDerP=T.
 Spin components of T(2) and E(2):
     alpha-alpha T2 =       0.5715126056D-01 E2=     -0.1638025980D+00
     alpha-beta  T2 =       0.3618134743D+00 E2=     -0.1089336440D+01
     beta-beta   T2 =       0.5715126056D-01 E2=     -0.1638025980D+00
 The integrals were generated   1 times.
 ANorm=    0.1214955141D+01
 E2 =    -0.1416941636D+01 EUMP2 =    -0.39057215082176D+03
 Leave Link  906 at Fri Sep 17 15:39:40 2021, MaxMem=   524288000 cpu:             265.1 elap:             265.3
 (Enter /opt/gaussian/g16_legacy/l1002.exe)
 Minotr:  Closed shell wavefunction.
          Computing MP2/KS-MP2 derivatives.
          Using Z-Vector for PSCF gradient.
          Skipping F1 and S1 gradient terms here.
          IDoAtm=1111111111111111111111111111
          Frozen-core window.
          Direct CPHF calculation.
          Differentiating once with respect to electric field.
                with respect to dipole field.
          Differentiating once with respect to nuclear coordinates.
          Requested convergence is 1.0D-10 RMS, and 1.0D-09 maximum.
          NewPWx=F KeepS1=T KeepF1=T KeepIn=T MapXYZ=F SortEE=F KeepMc=T.
 Keep R1 ints in memory in canonical form, NReq=425201067.
 FoFCou: FMM=F IPFlag=           0 FMFlag=           0 FMFlg1=           0
         NFxFlg=           0 DoJE=F BraDBF=F KetDBF=F FulRan=T
         wScrn=  0.000000 ICntrl=       600 IOpCl=  0 I1Cent=           0 NGrid=           0
         NMat0=    1 NMatS0=  28920 NMatT0=    0 NMatD0=    1 NMtDS0=    0 NMtDT0=    0
 Symmetry not used in FoFCou.
 Two-electron integral symmetry not used.
          MDV=     524288000 using IRadAn=       5.
          Solving linear equations separately, MaxMat=       0.
          There are     1 degrees of freedom in the 1st order CPHF.  IDoFFX=0 NUNeed=     1.
 LinEq1:  Iter=  0 NonCon=     1 RMS=2.55D-03 Max=3.76D-02 NDo=     1
 AX will form     1 AO Fock derivatives at one time.
 LinEq1:  Iter=  1 NonCon=     1 RMS=6.90D-04 Max=9.74D-03 NDo=     1
 LinEq1:  Iter=  2 NonCon=     1 RMS=1.61D-04 Max=4.14D-03 NDo=     1
 LinEq1:  Iter=  3 NonCon=     1 RMS=4.31D-05 Max=5.07D-04 NDo=     1
 LinEq1:  Iter=  4 NonCon=     1 RMS=1.99D-05 Max=8.55D-04 NDo=     1
 LinEq1:  Iter=  5 NonCon=     1 RMS=5.06D-06 Max=8.27D-05 NDo=     1
 LinEq1:  Iter=  6 NonCon=     1 RMS=1.63D-06 Max=2.69D-05 NDo=     1
 LinEq1:  Iter=  7 NonCon=     1 RMS=4.13D-07 Max=4.19D-06 NDo=     1
 LinEq1:  Iter=  8 NonCon=     1 RMS=1.01D-07 Max=1.86D-06 NDo=     1
 LinEq1:  Iter=  9 NonCon=     1 RMS=2.33D-08 Max=6.32D-07 NDo=     1
 LinEq1:  Iter= 10 NonCon=     1 RMS=6.41D-09 Max=1.62D-07 NDo=     1
 LinEq1:  Iter= 11 NonCon=     1 RMS=1.90D-09 Max=3.62D-08 NDo=     1
 LinEq1:  Iter= 12 NonCon=     1 RMS=4.04D-10 Max=5.86D-09 NDo=     1
 LinEq1:  Iter= 13 NonCon=     1 RMS=1.03D-10 Max=2.39D-09 NDo=     1
 LinEq1:  Iter= 14 NonCon=     0 RMS=2.95D-11 Max=3.75D-10 NDo=     1
 Linear equations converged to 1.000D-10 1.000D-09 after    14 iterations.
 End of Minotr F.D. properties file   721 does not exist.
 End of Minotr F.D. properties file   722 does not exist.
 End of Minotr F.D. properties file   788 does not exist.
 Leave Link 1002 at Fri Sep 17 15:40:15 2021, MaxMem=   524288000 cpu:              35.5 elap:              35.5
 (Enter /opt/gaussian/g16_legacy/l601.exe)
 Copying SCF densities to generalized density rwf, IOpCl= 0 IROHF=0.

 **********************************************************************

            Population analysis using the SCF density.

 **********************************************************************

 Orbital symmetries:
       Occupied  (A) (A) (A) (A) (A) (A) (A) (A) (A) (A) (A) (A)
                 (A) (A) (A) (A) (A) (A) (A) (A) (A) (A) (A) (A)
                 (A) (A) (A) (A) (A) (A) (A) (A) (A) (A) (A) (A)
                 (A) (A) (A)
       Virtual   (A) (A) (A) (A) (A) (A) (A) (A) (A) (A) (A) (A)
                 (A) (A) (A) (A) (A) (A) (A) (A) (A) (A) (A) (A)
                 (A) (A) (A) (A) (A) (A) (A) (A) (A) (A) (A) (A)
                 (A) (A) (A) (A) (A) (A) (A) (A) (A) (A) (A) (A)
                 (A) (A) (A) (A) (A) (A) (A) (A) (A) (A) (A) (A)
                 (A) (A) (A) (A) (A) (A) (A) (A) (A) (A) (A) (A)
                 (A) (A) (A) (A) (A) (A) (A) (A) (A) (A) (A) (A)
                 (A) (A) (A) (A) (A) (A) (A) (A) (A) (A) (A) (A)
                 (A) (A) (A) (A) (A) (A) (A) (A) (A) (A) (A) (A)
                 (A) (A) (A) (A) (A) (A) (A) (A) (A) (A) (A) (A)
                 (A) (A) (A) (A) (A) (A) (A) (A) (A) (A) (A) (A)
                 (A) (A) (A) (A) (A) (A) (A) (A) (A) (A) (A) (A)
                 (A) (A) (A) (A) (A) (A) (A) (A) (A) (A) (A) (A)
                 (A) (A) (A) (A) (A) (A) (A) (A) (A) (A) (A) (A)
                 (A) (A) (A) (A) (A) (A) (A) (A) (A) (A) (A) (A)
                 (A) (A) (A) (A) (A) (A) (A) (A) (A) (A) (A) (A)
                 (A) (A) (A) (A) (A) (A) (A) (A) (A)
 The electronic state is 1-A.
 Alpha  occ. eigenvalues --  -11.23060 -11.22505 -11.21999 -11.21920 -11.21883
 Alpha  occ. eigenvalues --  -11.21650 -11.21554 -11.21485 -11.21457 -11.21437
 Alpha  occ. eigenvalues --   -1.10623  -1.08327  -1.01911  -0.98014  -0.93647
 Alpha  occ. eigenvalues --   -0.91775  -0.86754  -0.82685  -0.70599  -0.69341
 Alpha  occ. eigenvalues --   -0.64584  -0.61545  -0.60102  -0.59030  -0.58088
 Alpha  occ. eigenvalues --   -0.56803  -0.55368  -0.55150  -0.53548  -0.51982
 Alpha  occ. eigenvalues --   -0.51716  -0.51321  -0.50593  -0.49230  -0.48274
 Alpha  occ. eigenvalues --   -0.46014  -0.44271  -0.33356  -0.31526
 Alpha virt. eigenvalues --    0.18457   0.19494   0.22038   0.24453   0.25183
 Alpha virt. eigenvalues --    0.27141   0.28395   0.28931   0.30250   0.30504
 Alpha virt. eigenvalues --    0.31238   0.32116   0.33135   0.33436   0.34031
 Alpha virt. eigenvalues --    0.35676   0.35774   0.36970   0.38998   0.40649
 Alpha virt. eigenvalues --    0.41062   0.42594   0.43321   0.44192   0.45149
 Alpha virt. eigenvalues --    0.51684   0.54045   0.61171   0.62447   0.70139
 Alpha virt. eigenvalues --    0.71101   0.71886   0.74280   0.76417   0.76614
 Alpha virt. eigenvalues --    0.76878   0.78796   0.79454   0.81140   0.82036
 Alpha virt. eigenvalues --    0.83811   0.85655   0.88079   0.91266   0.92027
 Alpha virt. eigenvalues --    0.92896   0.95178   0.97057   0.98263   0.99206
 Alpha virt. eigenvalues --    0.99753   1.00201   1.02303   1.03926   1.06182
 Alpha virt. eigenvalues --    1.07863   1.08640   1.08809   1.11200   1.12390
 Alpha virt. eigenvalues --    1.12560   1.13432   1.14585   1.14925   1.15821
 Alpha virt. eigenvalues --    1.16162   1.16402   1.18224   1.18706   1.20094
 Alpha virt. eigenvalues --    1.20662   1.22067   1.22855   1.25018   1.27542
 Alpha virt. eigenvalues --    1.34170   1.40670   1.41850   1.43739   1.45171
 Alpha virt. eigenvalues --    1.47559   1.53474   1.56257   1.56980   1.58244
 Alpha virt. eigenvalues --    1.59850   1.62721   1.65798   1.69518   1.70788
 Alpha virt. eigenvalues --    1.75330   1.82529   1.92037   1.92193   1.95500
 Alpha virt. eigenvalues --    1.98631   2.01126   2.02851   2.04182   2.08704
 Alpha virt. eigenvalues --    2.09243   2.11122   2.11380   2.13101   2.14509
 Alpha virt. eigenvalues --    2.15426   2.17689   2.19729   2.23576   2.27384
 Alpha virt. eigenvalues --    2.28340   2.29992   2.32201   2.34976   2.35567
 Alpha virt. eigenvalues --    2.35646   2.35782   2.39324   2.39849   2.40353
 Alpha virt. eigenvalues --    2.41283   2.41827   2.43033   2.45163   2.45387
 Alpha virt. eigenvalues --    2.47031   2.48341   2.49337   2.50337   2.54526
 Alpha virt. eigenvalues --    2.56589   2.57721   2.61273   2.62185   2.64356
 Alpha virt. eigenvalues --    2.66343   2.67159   2.72033   2.72994   2.73746
 Alpha virt. eigenvalues --    2.75717   2.77696   2.81093   2.82804   2.85162
 Alpha virt. eigenvalues --    2.87732   2.89154   2.91918   2.93439   2.94436
 Alpha virt. eigenvalues --    2.97092   2.99036   3.01163   3.02599   3.05100
 Alpha virt. eigenvalues --    3.05826   3.06634   3.08509   3.13017   3.15941
 Alpha virt. eigenvalues --    3.17140   3.18164   3.19616   3.20676   3.21269
 Alpha virt. eigenvalues --    3.23193   3.24414   3.26463   3.27248   3.36663
 Alpha virt. eigenvalues --    3.39075   3.44610   3.45615   3.55556   3.57285
 Alpha virt. eigenvalues --    3.58701   3.61064   3.66895   3.73954   3.78201
 Alpha virt. eigenvalues --    3.78872   3.80512   3.81331   3.82329   3.82834
 Alpha virt. eigenvalues --    3.84207   3.85748   3.87659   3.89507   3.91176
 Alpha virt. eigenvalues --    3.95900   4.59096   4.62633   4.74430   4.82817
 Alpha virt. eigenvalues --    4.88836   4.92669   4.93353   5.07549   5.10288
 Alpha virt. eigenvalues --    5.16869
          Condensed to atoms (all electrons):
               1          2          3          4          5          6
     1  C    5.001833   0.412355   0.413509   0.340286  -0.058753  -0.003555
     2  H    0.412355   0.571707  -0.030241  -0.040531   0.003238  -0.000016
     3  H    0.413509  -0.030241   0.588504  -0.045056  -0.004691   0.002571
     4  C    0.340286  -0.040531  -0.045056   4.955085   0.349333  -0.043073
     5  C   -0.058753   0.003238  -0.004691   0.349333   4.896471   0.397373
     6  H   -0.003555  -0.000016   0.002571  -0.043073   0.397373   0.593653
     7  H    0.003677  -0.000103   0.000081  -0.041411   0.406178  -0.027606
     8  H   -0.000531  -0.000030  -0.000276  -0.045814   0.400282  -0.035017
     9  C   -0.044046  -0.002233   0.001919   0.698833  -0.045932  -0.000426
    10  H    0.003079   0.000060  -0.000114  -0.036537  -0.006482   0.000248
    11  C   -0.007061  -0.002136   0.000138  -0.050676   0.003423  -0.000114
    12  H    0.000227   0.000172   0.000028  -0.001412  -0.000116   0.000021
    13  H    0.000232  -0.000034  -0.000010   0.000593  -0.000100  -0.000004
    14  H   -0.001828  -0.001333   0.000004  -0.000419   0.000093  -0.000001
    15  C   -0.000101  -0.000042  -0.000000   0.000002  -0.000000  -0.000000
    16  H   -0.000004   0.000001   0.000000   0.000000  -0.000000   0.000000
    17  H    0.000022  -0.000005  -0.000001  -0.000000   0.000000  -0.000000
    18  H   -0.000003  -0.000002   0.000002   0.000000  -0.000000  -0.000000
    19  C   -0.003607   0.001045   0.000615   0.000006  -0.000002   0.000000
    20  C    0.000597   0.000160  -0.000016  -0.000017  -0.000000  -0.000000
    21  H   -0.000041   0.000014   0.000000   0.000001  -0.000000   0.000000
    22  H   -0.000054  -0.000052  -0.000012  -0.000027  -0.000000  -0.000000
    23  H    0.000077  -0.000076  -0.000001  -0.000002   0.000000  -0.000000
    24  C   -0.063070  -0.000808  -0.000609   0.006130  -0.000158   0.000000
    25  H    0.000004   0.000213   0.001003  -0.000155   0.000010  -0.000002
    26  C    0.326221  -0.039855  -0.044595  -0.057362  -0.000188   0.000027
    27  H   -0.040299  -0.002146   0.004203  -0.001437   0.000317   0.000012
    28  H   -0.045132   0.004291  -0.002604  -0.001851  -0.000392   0.000093
               7          8          9         10         11         12
     1  C    0.003677  -0.000531  -0.044046   0.003079  -0.007061   0.000227
     2  H   -0.000103  -0.000030  -0.002233   0.000060  -0.002136   0.000172
     3  H    0.000081  -0.000276   0.001919  -0.000114   0.000138   0.000028
     4  C   -0.041411  -0.045814   0.698833  -0.036537  -0.050676  -0.001412
     5  C    0.406178   0.400282  -0.045932  -0.006482   0.003423  -0.000116
     6  H   -0.027606  -0.035017  -0.000426   0.000248  -0.000114   0.000021
     7  H    0.571024  -0.028077  -0.002738   0.002223   0.000137  -0.000004
     8  H   -0.028077   0.594782  -0.001035   0.000123  -0.000100  -0.000005
     9  C   -0.002738  -0.001035   4.940013   0.404860   0.337714  -0.044363
    10  H    0.002223   0.000123   0.404860   0.559397  -0.043639  -0.000222
    11  C    0.000137  -0.000100   0.337714  -0.043639   4.906189   0.400039
    12  H   -0.000004  -0.000005  -0.044363  -0.000222   0.400039   0.584225
    13  H   -0.000009   0.000015  -0.042838  -0.002646   0.403018  -0.033276
    14  H    0.000004   0.000000  -0.041951   0.003316   0.408012  -0.026852
    15  C    0.000000  -0.000000  -0.000000   0.000000  -0.000000   0.000000
    16  H    0.000000   0.000000   0.000000   0.000000  -0.000000   0.000000
    17  H   -0.000000   0.000000  -0.000000  -0.000000   0.000000  -0.000000
    18  H    0.000000  -0.000000  -0.000000   0.000000   0.000000  -0.000000
    19  C    0.000000   0.000000   0.000001   0.000000   0.000007  -0.000000
    20  C   -0.000000  -0.000000   0.000010  -0.000000  -0.000097   0.000002
    21  H    0.000000   0.000000   0.000000   0.000000   0.000002   0.000000
    22  H    0.000000   0.000000  -0.000032   0.000000   0.000040  -0.000008
    23  H   -0.000000   0.000000   0.000000  -0.000000  -0.000003  -0.000000
    24  C    0.000003  -0.000086   0.000070   0.000002  -0.000032   0.000002
    25  H   -0.000000   0.000012  -0.000002  -0.000000   0.000000   0.000000
    26  C   -0.000097   0.000810  -0.004367  -0.000116   0.000690  -0.000050
    27  H   -0.000010  -0.000009   0.001216  -0.000044   0.000070   0.000023
    28  H   -0.000025  -0.000187   0.000514   0.000004  -0.000030  -0.000000
              13         14         15         16         17         18
     1  C    0.000232  -0.001828  -0.000101  -0.000004   0.000022  -0.000003
     2  H   -0.000034  -0.001333  -0.000042   0.000001  -0.000005  -0.000002
     3  H   -0.000010   0.000004  -0.000000   0.000000  -0.000001   0.000002
     4  C    0.000593  -0.000419   0.000002   0.000000  -0.000000   0.000000
     5  C   -0.000100   0.000093  -0.000000  -0.000000   0.000000  -0.000000
     6  H   -0.000004  -0.000001  -0.000000   0.000000  -0.000000  -0.000000
     7  H   -0.000009   0.000004   0.000000   0.000000  -0.000000   0.000000
     8  H    0.000015   0.000000  -0.000000   0.000000   0.000000  -0.000000
     9  C   -0.042838  -0.041951  -0.000000   0.000000  -0.000000  -0.000000
    10  H   -0.002646   0.003316   0.000000   0.000000  -0.000000   0.000000
    11  C    0.403018   0.408012  -0.000000  -0.000000   0.000000   0.000000
    12  H   -0.033276  -0.026852   0.000000   0.000000  -0.000000  -0.000000
    13  H    0.586750  -0.030012  -0.000000  -0.000000   0.000000  -0.000000
    14  H   -0.030012   0.573930   0.000000  -0.000000  -0.000000  -0.000000
    15  C   -0.000000   0.000000   4.903234   0.399255   0.396990   0.405433
    16  H   -0.000000  -0.000000   0.399255   0.593100  -0.034901  -0.027560
    17  H    0.000000  -0.000000   0.396990  -0.034901   0.594290  -0.027371
    18  H   -0.000000  -0.000000   0.405433  -0.027560  -0.027371   0.568010
    19  C    0.000000  -0.000013   0.352285  -0.045767  -0.044296  -0.040392
    20  C   -0.000004   0.000009  -0.065368  -0.001105  -0.002138   0.003694
    21  H   -0.000000  -0.000006  -0.001684   0.002553  -0.000371  -0.000079
    22  H    0.000042   0.000571   0.003678  -0.000023  -0.000072  -0.000108
    23  H    0.000000   0.000034  -0.003430  -0.000507   0.002847   0.000010
    24  C   -0.000004   0.000003  -0.044867  -0.001136  -0.000547  -0.002385
    25  H    0.000000  -0.000001  -0.006751   0.000150   0.000235   0.002176
    26  C    0.000091  -0.000212   0.003153  -0.000124  -0.000086   0.000146
    27  H   -0.000079  -0.000251   0.000070   0.000004  -0.000004   0.000006
    28  H    0.000000  -0.000008  -0.000102   0.000012  -0.000002  -0.000011
              19         20         21         22         23         24
     1  C   -0.003607   0.000597  -0.000041  -0.000054   0.000077  -0.063070
     2  H    0.001045   0.000160   0.000014  -0.000052  -0.000076  -0.000808
     3  H    0.000615  -0.000016   0.000000  -0.000012  -0.000001  -0.000609
     4  C    0.000006  -0.000017   0.000001  -0.000027  -0.000002   0.006130
     5  C   -0.000002  -0.000000  -0.000000  -0.000000   0.000000  -0.000158
     6  H    0.000000  -0.000000   0.000000  -0.000000  -0.000000   0.000000
     7  H    0.000000  -0.000000   0.000000   0.000000  -0.000000   0.000003
     8  H    0.000000  -0.000000   0.000000   0.000000   0.000000  -0.000086
     9  C    0.000001   0.000010   0.000000  -0.000032   0.000000   0.000070
    10  H    0.000000  -0.000000   0.000000   0.000000  -0.000000   0.000002
    11  C    0.000007  -0.000097   0.000002   0.000040  -0.000003  -0.000032
    12  H   -0.000000   0.000002   0.000000  -0.000008  -0.000000   0.000002
    13  H    0.000000  -0.000004  -0.000000   0.000042   0.000000  -0.000004
    14  H   -0.000013   0.000009  -0.000006   0.000571   0.000034   0.000003
    15  C    0.352285  -0.065368  -0.001684   0.003678  -0.003430  -0.044867
    16  H   -0.045767  -0.001105   0.002553  -0.000023  -0.000507  -0.001136
    17  H   -0.044296  -0.002138  -0.000371  -0.000072   0.002847  -0.000547
    18  H   -0.040392   0.003694  -0.000079  -0.000108   0.000010  -0.002385
    19  C    4.918219   0.348397  -0.043825  -0.037058  -0.043934   0.698182
    20  C    0.348397   4.909184   0.398275   0.406155   0.402449  -0.043320
    21  H   -0.043825   0.398275   0.582521  -0.026271  -0.033098  -0.000842
    22  H   -0.037058   0.406155  -0.026271   0.568161  -0.030011  -0.002869
    23  H   -0.043934   0.402449  -0.033098  -0.030011   0.586191   0.000448
    24  C    0.698182  -0.043320  -0.000842  -0.002869   0.000448   4.961509
    25  H   -0.036139   0.003365  -0.000126   0.000059  -0.000110   0.402019
    26  C   -0.048264  -0.007533   0.000188  -0.001943   0.000286   0.339933
    27  H    0.000824  -0.002064   0.000056  -0.001169  -0.000043  -0.043812
    28  H    0.000913   0.000169   0.000032   0.000031  -0.000012  -0.043339
              25         26         27         28
     1  C    0.000004   0.326221  -0.040299  -0.045132
     2  H    0.000213  -0.039855  -0.002146   0.004291
     3  H    0.001003  -0.044595   0.004203  -0.002604
     4  C   -0.000155  -0.057362  -0.001437  -0.001851
     5  C    0.000010  -0.000188   0.000317  -0.000392
     6  H   -0.000002   0.000027   0.000012   0.000093
     7  H   -0.000000  -0.000097  -0.000010  -0.000025
     8  H    0.000012   0.000810  -0.000009  -0.000187
     9  C   -0.000002  -0.004367   0.001216   0.000514
    10  H   -0.000000  -0.000116  -0.000044   0.000004
    11  C    0.000000   0.000690   0.000070  -0.000030
    12  H    0.000000  -0.000050   0.000023  -0.000000
    13  H    0.000000   0.000091  -0.000079   0.000000
    14  H   -0.000001  -0.000212  -0.000251  -0.000008
    15  C   -0.006751   0.003153   0.000070  -0.000102
    16  H    0.000150  -0.000124   0.000004   0.000012
    17  H    0.000235  -0.000086  -0.000004  -0.000002
    18  H    0.002176   0.000146   0.000006  -0.000011
    19  C   -0.036139  -0.048264   0.000824   0.000913
    20  C    0.003365  -0.007533  -0.002064   0.000169
    21  H   -0.000126   0.000188   0.000056   0.000032
    22  H    0.000059  -0.001943  -0.001169   0.000031
    23  H   -0.000110   0.000286  -0.000043  -0.000012
    24  C    0.402019   0.339933  -0.043812  -0.043339
    25  H    0.558508  -0.041270   0.003230  -0.003483
    26  C   -0.041270   4.982280   0.414884   0.413773
    27  H    0.003230   0.414884   0.571217  -0.029598
    28  H   -0.003483   0.413773  -0.029598   0.588482
 Mulliken charges:
               1
     1  C   -0.234032
     2  H    0.126386
     3  H    0.115649
     4  C    0.015513
     5  C   -0.339901
     6  H    0.115814
     7  H    0.116753
     8  H    0.115143
     9  C   -0.155188
    10  H    0.116486
    11  C   -0.355593
    12  H    0.121570
    13  H    0.118274
    14  H    0.116911
    15  C   -0.341754
    16  H    0.116052
    17  H    0.115411
    18  H    0.118433
    19  C    0.022804
    20  C   -0.350803
    21  H    0.122702
    22  H    0.120972
    23  H    0.118886
    24  C   -0.160419
    25  H    0.117055
    26  C   -0.236422
    27  H    0.124832
    28  H    0.118464
 Sum of Mulliken charges =  -0.00000
 Mulliken charges with hydrogens summed into heavy atoms:
               1
     1  C    0.008004
     4  C    0.015513
     5  C    0.007809
     9  C   -0.038702
    11  C    0.001163
    15  C    0.008142
    19  C    0.022804
    20  C    0.011757
    24  C   -0.043363
    26  C    0.006874
 Electronic spatial extent (au):  <R**2>=           2423.6411
 Charge=             -0.0000 electrons
 Dipole moment (field-independent basis, Debye):
    X=              0.2949    Y=              0.1263    Z=             -0.0061  Tot=              0.3209
 Quadrupole moment (field-independent basis, Debye-Ang):
   XX=            -64.5131   YY=            -63.6024   ZZ=            -67.0538
   XY=              0.6101   XZ=              0.8628   YZ=             -0.4855
 Traceless Quadrupole moment (field-independent basis, Debye-Ang):
   XX=              0.5433   YY=              1.4540   ZZ=             -1.9974
   XY=              0.6101   XZ=              0.8628   YZ=             -0.4855
 Octapole moment (field-independent basis, Debye-Ang**2):
  XXX=              1.3699  YYY=             -2.7177  ZZZ=              0.1849  XYY=             -0.5712
  XXY=              4.5370  XXZ=             -2.6520  XZZ=              1.5770  YZZ=              1.2281
  YYZ=              1.3689  XYZ=             -0.7524
 Hexadecapole moment (field-independent basis, Debye-Ang**3):
 XXXX=          -2492.3153 YYYY=           -696.1109 ZZZZ=           -174.8234 XXXY=             -2.3457
 XXXZ=             11.9405 YYYX=             -9.3673 YYYZ=             -3.0537 ZZZX=             -0.8368
 ZZZY=             -0.0653 XXYY=           -530.4559 XXZZ=           -456.3083 YYZZ=           -139.1720
 XXYZ=             -4.2414 YYXZ=              3.1989 ZZXY=              4.6972
 N-N= 5.164362458498D+02 E-N=-1.937506487800D+03  KE= 3.886261119420D+02
 No NMR shielding tensors so no spin-rotation constants.
 Leave Link  601 at Fri Sep 17 15:40:16 2021, MaxMem=   524288000 cpu:               0.3 elap:               0.3
 (Enter /opt/gaussian/g16_legacy/l701.exe)
 ... and contract with generalized density number  2.
 Compute integral first derivatives.
 Leave Link  701 at Fri Sep 17 15:40:16 2021, MaxMem=   524288000 cpu:               0.3 elap:               0.3
 (Enter /opt/gaussian/g16_legacy/l702.exe)
 L702 exits ... SP integral derivatives will be done elsewhere.
 Leave Link  702 at Fri Sep 17 15:40:16 2021, MaxMem=   524288000 cpu:               0.0 elap:               0.1
 (Enter /opt/gaussian/g16_legacy/l703.exe)
 Integral derivatives from FoFJK, PRISM(SPDF).
 Compute integral first derivatives, UseDBF=F ICtDFT=           0.
 Calling FoFJK, ICntrl=  10002127 FMM=F ISym2X=0 I1Cent= 0 IOpClX= 0 NMat=1 NMatS=1 NMatT=0.
 FoFJK:  IHMeth= 1 ICntrl=10002127 DoSepK=F KAlg= 0 I1Cent=           0 FoldK=F
 IRaf=         0 NMat=       1 IRICut=       1 DoRegI=T DoRafI=F ISym2E= 0 IDoP0=0 IntGTp=1.
 FoFCou: FMM=F IPFlag=           0 FMFlag=      100000 FMFlg1=         800
         NFxFlg=           0 DoJE=F BraDBF=F KetDBF=F FulRan=T
         wScrn=  0.000000 ICntrl=  10002127 IOpCl=  0 I1Cent=           0 NGrid=           0
         NMat0=    1 NMatS0=      1 NMatT0=    0 NMatD0=    1 NMtDS0=    0 NMtDT0=    0
 Symmetry not used in FoFCou.
 Leave Link  703 at Fri Sep 17 15:40:51 2021, MaxMem=   524288000 cpu:              35.4 elap:              35.4
 (Enter /opt/gaussian/g16_legacy/l716.exe)
 Dipole        = 9.11673984D-02 6.69464300D-02-4.82927953D-03
 ***** Axes restored to original set *****
 -------------------------------------------------------------------
 Center     Atomic                   Forces (Hartrees/Bohr)
 Number     Number              X              Y              Z
 -------------------------------------------------------------------
      1        6          -0.007703796    0.005626244    0.000051151
      2        1           0.001118513   -0.002801547   -0.003596752
      3        1           0.000686435   -0.000810618   -0.003658909
      4        6          -0.004797808    0.000327161    0.004264267
      5        6          -0.002679339   -0.000122670   -0.001690981
      6        1           0.001694187   -0.001740617   -0.002376544
      7        1           0.003756968    0.001488669    0.000634933
      8        1          -0.001076556   -0.000074575    0.003211661
      9        6           0.002153005   -0.002870844   -0.001244828
     10        1           0.002209750   -0.002324637    0.001627879
     11        6           0.002022563    0.001822449   -0.000349829
     12        1           0.001909680    0.001077210   -0.002635910
     13        1          -0.000385739    0.001695756    0.002940980
     14        1          -0.003095592   -0.001222302    0.000683533
     15        6          -0.000364283   -0.002271267    0.002412507
     16        1          -0.000417643    0.002518917    0.002219882
     17        1           0.002209124   -0.001229330   -0.002441014
     18        1          -0.001803691    0.002453325   -0.003052740
     19        6          -0.001235151   -0.001853733    0.004820234
     20        6          -0.003992220    0.000553135   -0.002053819
     21        1          -0.000341263    0.002626003    0.001688116
     22        1           0.002312330   -0.002262487    0.001132722
     23        1           0.001835814   -0.002544587   -0.001856318
     24        6          -0.000843827   -0.003313667   -0.004064049
     25        1           0.001888001    0.002804420   -0.000448333
     26        6           0.007812662   -0.001269828   -0.001065812
     27        1          -0.000959960    0.001148863    0.003699621
     28        1          -0.001912162    0.002570556    0.001148353
 -------------------------------------------------------------------
 Cartesian Forces:  Max     0.007812662 RMS     0.002574488
 Leave Link  716 at Fri Sep 17 15:40:51 2021, MaxMem=   524288000 cpu:               0.1 elap:               0.1
 (Enter /opt/gaussian/g16_legacy/l103.exe)

 GradGradGradGradGradGradGradGradGradGradGradGradGradGradGradGradGradGrad
 Berny optimization.
 FormGI is forming the generalized inverse of G from B-inverse, IUseBI=4.
 GSVD:  received Info=                   1 from GESDD.
 Internal  Forces:  Max     0.004877883 RMS     0.001917211
 Search for a local minimum.
 Step number   1 out of a maximum of  138
 All quantities printed in internal units (Hartrees-Bohrs-Radians)
 RMS Force = .19172D-02 SwitMx=.10000D-02 MixMth= 1
 Mixed Optimization -- RFO/linear search
 Second derivative matrix not updated -- first step.
 ITU=  0
     Eigenvalues ---    0.00344   0.00570   0.00672   0.00679   0.00691
     Eigenvalues ---    0.00714   0.00818   0.01219   0.01286   0.01568
     Eigenvalues ---    0.01641   0.02779   0.02785   0.04018   0.04139
     Eigenvalues ---    0.05349   0.05399   0.06978   0.07036   0.07091
     Eigenvalues ---    0.07092   0.07269   0.07301   0.07348   0.07505
     Eigenvalues ---    0.09276   0.09362   0.12766   0.12843   0.15999
     Eigenvalues ---    0.15999   0.16000   0.16000   0.16000   0.16000
     Eigenvalues ---    0.16000   0.16000   0.16000   0.16000   0.16000
     Eigenvalues ---    0.16000   0.16000   0.16000   0.21858   0.21866
     Eigenvalues ---    0.22000   0.22000   0.24994   0.24997   0.24998
     Eigenvalues ---    0.24999   0.29246   0.30869   0.31641   0.31700
     Eigenvalues ---    0.31792   0.31968   0.32794   0.33867   0.33971
     Eigenvalues ---    0.34061   0.34199   0.34224   0.34236   0.34241
     Eigenvalues ---    0.34244   0.34253   0.34256   0.34266   0.34271
     Eigenvalues ---    0.34291   0.34341   0.34546   0.34555   0.34801
     Eigenvalues ---    0.34840   0.55486   0.55589
 RFO step:  Lambda=-2.95922898D-03 EMin= 3.43583798D-03
 Linear search not attempted -- first point.
 Iteration  1 RMS(Cart)=  0.03970442 RMS(Int)=  0.00072310
 Iteration  2 RMS(Cart)=  0.00093449 RMS(Int)=  0.00016613
 Iteration  3 RMS(Cart)=  0.00000043 RMS(Int)=  0.00016613
 ITry= 1 IFail=0 DXMaxC= 1.84D-01 DCOld= 1.00D+10 DXMaxT= 3.00D-01 DXLimC= 3.00D+00 Rises=F
 Variable       Old X    -DE/DX   Delta X   Delta X   Delta X     New X
                                 (Linear)    (Quad)   (Total)
    R1        2.07227  -0.00332   0.00000  -0.00966  -0.00966   2.06261
    R2        2.07555  -0.00277   0.00000  -0.00812  -0.00812   2.06743
    R3        2.86263  -0.00353   0.00000  -0.01133  -0.01133   2.85130
    R4        2.89493   0.00176   0.00000   0.00595   0.00595   2.90088
    R5        2.84806  -0.00041   0.00000  -0.00130  -0.00130   2.84676
    R6        2.54703  -0.00402   0.00000  -0.00721  -0.00721   2.53982
    R7        2.06920  -0.00219   0.00000  -0.00634  -0.00634   2.06286
    R8        2.06953  -0.00370   0.00000  -0.01071  -0.01071   2.05882
    R9        2.06842  -0.00182   0.00000  -0.00527  -0.00527   2.06315
   R10        2.05936  -0.00226   0.00000  -0.00643  -0.00643   2.05292
   R11        2.82714   0.00310   0.00000   0.00936   0.00936   2.83650
   R12        2.06759  -0.00154   0.00000  -0.00446  -0.00446   2.06313
   R13        2.06876  -0.00254   0.00000  -0.00736  -0.00736   2.06140
   R14        2.06418  -0.00295   0.00000  -0.00846  -0.00846   2.05572
   R15        2.06926  -0.00204   0.00000  -0.00590  -0.00590   2.06336
   R16        2.06906  -0.00197   0.00000  -0.00570  -0.00570   2.06336
   R17        2.06933  -0.00392   0.00000  -0.01134  -0.01134   2.05799
   R18        2.84697  -0.00081   0.00000  -0.00252  -0.00252   2.84444
   R19        2.84203  -0.00050   0.00000  -0.00155  -0.00155   2.84048
   R20        2.54613  -0.00318   0.00000  -0.00570  -0.00570   2.54043
   R21        2.06884  -0.00186   0.00000  -0.00539  -0.00539   2.06345
   R22        2.06404  -0.00279   0.00000  -0.00802  -0.00802   2.05602
   R23        2.06996  -0.00261   0.00000  -0.00758  -0.00758   2.06238
   R24        2.05999  -0.00196   0.00000  -0.00557  -0.00557   2.05441
   R25        2.84525  -0.00156   0.00000  -0.00485  -0.00485   2.84040
   R26        2.06900  -0.00272   0.00000  -0.00787  -0.00787   2.06113
   R27        2.07379  -0.00239   0.00000  -0.00697  -0.00697   2.06683
    A1        1.82979   0.00207   0.00000   0.02256   0.02239   1.85218
    A2        1.93009   0.00043   0.00000   0.00929   0.00933   1.93942
    A3        1.91840  -0.00278   0.00000  -0.02024  -0.02028   1.89812
    A4        1.90263  -0.00069   0.00000  -0.00272  -0.00272   1.89992
    A5        1.92013  -0.00195   0.00000  -0.01729  -0.01732   1.90281
    A6        1.95842   0.00283   0.00000   0.00908   0.00912   1.96755
    A7        2.00831   0.00238   0.00000   0.00969   0.00913   2.01744
    A8        2.17065  -0.00488   0.00000  -0.01892  -0.01945   2.15120
    A9        2.10404   0.00252   0.00000   0.01033   0.00975   2.11380
   A10        1.92480   0.00166   0.00000   0.00903   0.00905   1.93385
   A11        1.95930  -0.00262   0.00000  -0.01310  -0.01306   1.94624
   A12        1.92809   0.00227   0.00000   0.01213   0.01215   1.94024
   A13        1.87760   0.00109   0.00000   0.01015   0.01018   1.88778
   A14        1.89486  -0.00307   0.00000  -0.02466  -0.02465   1.87020
   A15        1.87703   0.00055   0.00000   0.00561   0.00565   1.88268
   A16        2.06960  -0.00193   0.00000  -0.01333  -0.01335   2.05625
   A17        2.22522  -0.00189   0.00000  -0.00845  -0.00846   2.21676
   A18        1.98823   0.00382   0.00000   0.02195   0.02193   2.01016
   A19        1.91719   0.00396   0.00000   0.02334   0.02330   1.94049
   A20        1.91009   0.00237   0.00000   0.01553   0.01548   1.92556
   A21        1.98109  -0.00297   0.00000  -0.01830  -0.01821   1.96288
   A22        1.88724  -0.00310   0.00000  -0.01890  -0.01907   1.86817
   A23        1.89289  -0.00096   0.00000  -0.00765  -0.00756   1.88533
   A24        1.87272   0.00052   0.00000   0.00490   0.00497   1.87770
   A25        1.89483  -0.00313   0.00000  -0.02538  -0.02537   1.86945
   A26        1.87886   0.00091   0.00000   0.00789   0.00793   1.88679
   A27        1.92339   0.00175   0.00000   0.00881   0.00883   1.93222
   A28        1.87922   0.00092   0.00000   0.00936   0.00940   1.88862
   A29        1.92495   0.00220   0.00000   0.01232   0.01234   1.93730
   A30        1.96058  -0.00277   0.00000  -0.01383  -0.01379   1.94678
   A31        1.99470   0.00145   0.00000   0.00578   0.00576   2.00046
   A32        2.10572   0.00185   0.00000   0.00733   0.00731   2.11303
   A33        2.18271  -0.00330   0.00000  -0.01300  -0.01302   2.16969
   A34        1.92156   0.00231   0.00000   0.01170   0.01172   1.93329
   A35        1.97971  -0.00222   0.00000  -0.01021  -0.01019   1.96952
   A36        1.92072   0.00001   0.00000  -0.00081  -0.00079   1.91992
   A37        1.88450   0.00023   0.00000   0.00322   0.00324   1.88774
   A38        1.89068  -0.00240   0.00000  -0.02162  -0.02160   1.86909
   A39        1.86377   0.00200   0.00000   0.01694   0.01696   1.88072
   A40        2.06722  -0.00168   0.00000  -0.01184  -0.01225   2.05497
   A41        2.22710  -0.00225   0.00000  -0.00991  -0.01033   2.21677
   A42        1.98874   0.00394   0.00000   0.02256   0.02213   2.01088
   A43        1.94442   0.00332   0.00000   0.01371   0.01374   1.95816
   A44        1.92603  -0.00264   0.00000  -0.02489  -0.02496   1.90107
   A45        1.92094  -0.00239   0.00000  -0.01479  -0.01498   1.90596
   A46        1.94655  -0.00053   0.00000  -0.00241  -0.00236   1.94419
   A47        1.88063   0.00060   0.00000   0.01700   0.01705   1.89768
   A48        1.84194   0.00155   0.00000   0.01188   0.01162   1.85356
    D1       -2.64266  -0.00174   0.00000  -0.05214  -0.05193  -2.69459
    D2        0.47856  -0.00077   0.00000   0.01000   0.00977   0.48833
    D3       -0.63976   0.00059   0.00000  -0.02143  -0.02119  -0.66094
    D4        2.48147   0.00157   0.00000   0.04071   0.04051   2.52198
[...]
                 (A) (A) (A) (A) (A) (A) (A) (A) (A) (A) (A) (A)
                 (A) (A) (A) (A) (A) (A) (A) (A) (A) (A) (A) (A)
                 (A) (A) (A) (A) (A) (A) (A) (A) (A) (A) (A) (A)
                 (A) (A) (A) (A) (A) (A) (A) (A) (A) (A) (A) (A)
                 (A) (A) (A) (A) (A) (A) (A) (A) (A) (A) (A) (A)
                 (A) (A) (A) (A) (A) (A) (A) (A) (A) (A) (A) (A)
                 (A) (A) (A) (A) (A) (A) (A) (A) (A) (A) (A) (A)
                 (A) (A) (A) (A) (A) (A) (A) (A) (A) (A) (A) (A)
                 (A) (A) (A) (A) (A) (A) (A) (A) (A) (A) (A) (A)
                 (A) (A) (A) (A) (A) (A) (A) (A) (A) (A) (A) (A)
                 (A) (A) (A) (A) (A) (A) (A) (A) (A) (A) (A) (A)
                 (A) (A) (A) (A) (A) (A) (A) (A) (A) (A) (A) (A)
                 (A) (A) (A) (A) (A) (A) (A) (A) (A) (A) (A) (A)
                 (A) (A) (A) (A) (A) (A) (A) (A) (A)
 The electronic state is 1-A.
 Alpha  occ. eigenvalues --  -11.23020 -11.22460 -11.21868 -11.21729 -11.21712
 Alpha  occ. eigenvalues --  -11.21539 -11.21506 -11.21436 -11.21417 -11.21348
 Alpha  occ. eigenvalues --   -1.10821  -1.08492  -1.01823  -0.98143  -0.93838
 Alpha  occ. eigenvalues --   -0.91939  -0.86963  -0.82855  -0.70494  -0.69519
 Alpha  occ. eigenvalues --   -0.64988  -0.61512  -0.60591  -0.58878  -0.58366
 Alpha  occ. eigenvalues --   -0.56774  -0.55298  -0.54966  -0.53295  -0.52261
 Alpha  occ. eigenvalues --   -0.51859  -0.51173  -0.50832  -0.49581  -0.48519
 Alpha  occ. eigenvalues --   -0.46073  -0.44624  -0.33371  -0.31514
 Alpha virt. eigenvalues --    0.18142   0.19779   0.22152   0.24486   0.25192
 Alpha virt. eigenvalues --    0.27439   0.28535   0.28922   0.30318   0.30811
 Alpha virt. eigenvalues --    0.31477   0.32261   0.33202   0.33794   0.34383
 Alpha virt. eigenvalues --    0.35458   0.36114   0.36962   0.39185   0.40602
 Alpha virt. eigenvalues --    0.41328   0.42631   0.43685   0.44253   0.45395
 Alpha virt. eigenvalues --    0.51702   0.54378   0.61070   0.62576   0.70520
 Alpha virt. eigenvalues --    0.71073   0.72196   0.73768   0.76075   0.76177
 Alpha virt. eigenvalues --    0.76620   0.79010   0.79474   0.81070   0.82306
 Alpha virt. eigenvalues --    0.83713   0.85579   0.89117   0.91091   0.91343
 Alpha virt. eigenvalues --    0.92820   0.94745   0.97065   0.98284   0.98818
 Alpha virt. eigenvalues --    0.99710   1.00468   1.01911   1.03844   1.06577
 Alpha virt. eigenvalues --    1.08019   1.08221   1.09393   1.11664   1.12687
 Alpha virt. eigenvalues --    1.13026   1.13870   1.14856   1.15402   1.16045
 Alpha virt. eigenvalues --    1.16257   1.16619   1.18722   1.19116   1.20671
 Alpha virt. eigenvalues --    1.20953   1.23032   1.23885   1.25765   1.28153
 Alpha virt. eigenvalues --    1.34332   1.41723   1.42153   1.44890   1.46395
 Alpha virt. eigenvalues --    1.48456   1.54136   1.55360   1.57256   1.58165
 Alpha virt. eigenvalues --    1.61459   1.63397   1.66485   1.69046   1.69645
 Alpha virt. eigenvalues --    1.73917   1.82243   1.91111   1.93363   1.96231
 Alpha virt. eigenvalues --    1.98688   2.01467   2.02277   2.03942   2.08565
 Alpha virt. eigenvalues --    2.09706   2.10748   2.11744   2.13037   2.14903
 Alpha virt. eigenvalues --    2.15780   2.16940   2.19854   2.23666   2.28347
 Alpha virt. eigenvalues --    2.29590   2.30325   2.33235   2.35347   2.35688
 Alpha virt. eigenvalues --    2.35978   2.36098   2.38923   2.40264   2.41259
 Alpha virt. eigenvalues --    2.42195   2.43169   2.44154   2.45371   2.46084
 Alpha virt. eigenvalues --    2.47201   2.49167   2.49622   2.51174   2.54099
 Alpha virt. eigenvalues --    2.57315   2.58365   2.61888   2.63241   2.64107
 Alpha virt. eigenvalues --    2.67127   2.68175   2.71776   2.73352   2.73474
 Alpha virt. eigenvalues --    2.75815   2.77410   2.80796   2.82634   2.85354
 Alpha virt. eigenvalues --    2.87137   2.89441   2.92178   2.93739   2.94867
 Alpha virt. eigenvalues --    2.97869   2.99094   3.00960   3.02677   3.05807
 Alpha virt. eigenvalues --    3.06402   3.07703   3.09315   3.13762   3.17093
 Alpha virt. eigenvalues --    3.17589   3.19238   3.20046   3.21242   3.22334
 Alpha virt. eigenvalues --    3.24167   3.25050   3.26607   3.27420   3.37866
 Alpha virt. eigenvalues --    3.40355   3.46023   3.46902   3.56200   3.58183
 Alpha virt. eigenvalues --    3.59499   3.62406   3.67928   3.75494   3.78622
 Alpha virt. eigenvalues --    3.80005   3.81570   3.82569   3.83287   3.83898
 Alpha virt. eigenvalues --    3.84750   3.86481   3.87645   3.89820   3.91558
 Alpha virt. eigenvalues --    3.97645   4.59389   4.63170   4.74472   4.82572
 Alpha virt. eigenvalues --    4.88928   4.92582   4.93409   5.07840   5.10766
 Alpha virt. eigenvalues --    5.17766
          Condensed to atoms (all electrons):
               1          2          3          4          5          6
     1  C    5.004767   0.411715   0.414473   0.337355  -0.056085  -0.003698
     2  H    0.411715   0.572983  -0.028296  -0.038988   0.003071  -0.000034
     3  H    0.414473  -0.028296   0.587507  -0.046308  -0.004587   0.002378
     4  C    0.337355  -0.038988  -0.046308   4.952603   0.351934  -0.041506
     5  C   -0.056085   0.003071  -0.004587   0.351934   4.891804   0.397495
     6  H   -0.003698  -0.000034   0.002378  -0.041506   0.397495   0.591921
     7  H    0.003801  -0.000108   0.000106  -0.042765   0.407087  -0.026764
     8  H    0.000011  -0.000005  -0.000489  -0.045679   0.400946  -0.037541
     9  C   -0.047991  -0.001860   0.002531   0.697840  -0.046054  -0.000373
    10  H    0.003272   0.000031  -0.000118  -0.037842  -0.006525   0.000216
    11  C   -0.007749  -0.002811   0.000160  -0.050271   0.003364  -0.000105
    12  H    0.000152   0.000184   0.000017  -0.000628  -0.000106   0.000017
    13  H    0.000310  -0.000067  -0.000013  -0.000247  -0.000095  -0.000004
    14  H   -0.001745  -0.001657   0.000030  -0.000691   0.000109   0.000002
    15  C   -0.000099  -0.000043  -0.000004   0.000001  -0.000000  -0.000000
    16  H   -0.000005   0.000002   0.000000   0.000000  -0.000000   0.000000
    17  H    0.000024  -0.000007  -0.000002  -0.000000   0.000000  -0.000000
    18  H   -0.000003  -0.000002   0.000003   0.000000  -0.000000  -0.000000
    19  C   -0.004325   0.001388   0.000787   0.000041  -0.000003   0.000000
    20  C    0.000587   0.000200  -0.000015  -0.000018  -0.000000   0.000000
    21  H   -0.000040   0.000022   0.000000   0.000001  -0.000000   0.000000
    22  H   -0.000302  -0.000131  -0.000016  -0.000011  -0.000000  -0.000000
    23  H    0.000130  -0.000135  -0.000002  -0.000005   0.000000  -0.000000
    24  C   -0.061827  -0.000504  -0.000900   0.006443  -0.000149   0.000004
    25  H    0.000175   0.000111   0.001011  -0.000152   0.000010  -0.000001
    26  C    0.332330  -0.041801  -0.046074  -0.055544  -0.000661   0.000086
    27  H   -0.042369  -0.003118   0.004477  -0.001813   0.000243   0.000006
    28  H   -0.046841   0.004515  -0.001931  -0.002075  -0.000289   0.000058
               7          8          9         10         11         12
     1  C    0.003801   0.000011  -0.047991   0.003272  -0.007749   0.000152
     2  H   -0.000108  -0.000005  -0.001860   0.000031  -0.002811   0.000184
     3  H    0.000106  -0.000489   0.002531  -0.000118   0.000160   0.000017
     4  C   -0.042765  -0.045679   0.697840  -0.037842  -0.050271  -0.000628
     5  C    0.407087   0.400946  -0.046054  -0.006525   0.003364  -0.000106
     6  H   -0.026764  -0.037541  -0.000373   0.000216  -0.000105   0.000017
     7  H    0.568858  -0.027466  -0.002890   0.002385   0.000132  -0.000006
     8  H   -0.027466   0.596034  -0.001011   0.000135  -0.000101  -0.000004
     9  C   -0.002890  -0.001011   4.938971   0.404494   0.340494  -0.041523
    10  H    0.002385   0.000135   0.404494   0.558671  -0.041279  -0.001122
    11  C    0.000132  -0.000101   0.340494  -0.041279   4.900974   0.401144
    12  H   -0.000006  -0.000004  -0.041523  -0.001122   0.401144   0.583648
    13  H   -0.000006   0.000017  -0.041805  -0.001264   0.402169  -0.035462
    14  H    0.000005  -0.000003  -0.043903   0.003299   0.409079  -0.027132
    15  C    0.000000  -0.000000  -0.000000   0.000000  -0.000000   0.000000
    16  H    0.000000   0.000000   0.000000   0.000000   0.000000   0.000000
    17  H   -0.000000   0.000000   0.000000  -0.000000  -0.000000  -0.000000
    18  H    0.000000  -0.000000  -0.000000   0.000000   0.000000  -0.000000
    19  C    0.000000   0.000000  -0.000001   0.000000   0.000013  -0.000000
    20  C   -0.000000  -0.000000   0.000015  -0.000000  -0.000147   0.000004
    21  H    0.000000  -0.000000   0.000000   0.000000   0.000003   0.000000
    22  H    0.000000   0.000000  -0.000045   0.000000   0.000074  -0.000013
    23  H   -0.000000   0.000000   0.000000  -0.000000  -0.000009  -0.000000
    24  C    0.000004  -0.000111   0.000114   0.000002  -0.000031   0.000002
    25  H   -0.000000   0.000015  -0.000002  -0.000000   0.000000   0.000000
    26  C   -0.000109   0.000609  -0.004911  -0.000113   0.000577  -0.000037
    27  H   -0.000005  -0.000015   0.001406  -0.000046  -0.000082   0.000037
    28  H   -0.000050   0.000197   0.000760   0.000001  -0.000033  -0.000000
              13         14         15         16         17         18
     1  C    0.000310  -0.001745  -0.000099  -0.000005   0.000024  -0.000003
     2  H   -0.000067  -0.001657  -0.000043   0.000002  -0.000007  -0.000002
     3  H   -0.000013   0.000030  -0.000004   0.000000  -0.000002   0.000003
     4  C   -0.000247  -0.000691   0.000001   0.000000  -0.000000   0.000000
     5  C   -0.000095   0.000109  -0.000000  -0.000000   0.000000  -0.000000
     6  H   -0.000004   0.000002  -0.000000   0.000000  -0.000000  -0.000000
     7  H   -0.000006   0.000005   0.000000   0.000000  -0.000000   0.000000
     8  H    0.000017  -0.000003  -0.000000   0.000000   0.000000  -0.000000
     9  C   -0.041805  -0.043903  -0.000000   0.000000   0.000000  -0.000000
    10  H   -0.001264   0.003299   0.000000   0.000000  -0.000000   0.000000
    11  C    0.402169   0.409079  -0.000000   0.000000  -0.000000   0.000000
    12  H   -0.035462  -0.027132   0.000000   0.000000  -0.000000  -0.000000
    13  H    0.586720  -0.029956  -0.000000  -0.000000   0.000000  -0.000000
    14  H   -0.029956   0.577164   0.000000  -0.000000  -0.000000  -0.000000
    15  C   -0.000000   0.000000   4.900112   0.398811   0.398238   0.406218
    16  H   -0.000000  -0.000000   0.398811   0.593607  -0.037806  -0.026549
    17  H    0.000000  -0.000000   0.398238  -0.037806   0.594542  -0.026703
    18  H   -0.000000  -0.000000   0.406218  -0.026549  -0.026703   0.566018
    19  C    0.000001  -0.000026   0.353753  -0.044274  -0.043899  -0.041639
    20  C   -0.000015  -0.000000  -0.064931  -0.001201  -0.001975   0.003785
    21  H   -0.000000  -0.000008  -0.002223   0.002766  -0.000456  -0.000053
    22  H    0.000114   0.000412   0.003725  -0.000031  -0.000068  -0.000113
    23  H    0.000000   0.000079  -0.002632  -0.000476   0.002756  -0.000032
    24  C   -0.000009   0.000026  -0.044415  -0.001270  -0.000422  -0.002632
    25  H    0.000000  -0.000002  -0.006963   0.000187   0.000182   0.002335
    26  C    0.000163  -0.000737   0.003126  -0.000131  -0.000068   0.000148
    27  H   -0.000140  -0.000475   0.000051   0.000007  -0.000005   0.000007
    28  H   -0.000000  -0.000010  -0.000094   0.000009  -0.000002  -0.000010
              19         20         21         22         23         24
     1  C   -0.004325   0.000587  -0.000040  -0.000302   0.000130  -0.061827
     2  H    0.001388   0.000200   0.000022  -0.000131  -0.000135  -0.000504
     3  H    0.000787  -0.000015   0.000000  -0.000016  -0.000002  -0.000900
     4  C    0.000041  -0.000018   0.000001  -0.000011  -0.000005   0.006443
     5  C   -0.000003  -0.000000  -0.000000  -0.000000   0.000000  -0.000149
     6  H    0.000000   0.000000   0.000000  -0.000000  -0.000000   0.000004
     7  H    0.000000  -0.000000   0.000000   0.000000  -0.000000   0.000004
     8  H    0.000000  -0.000000  -0.000000   0.000000   0.000000  -0.000111
     9  C   -0.000001   0.000015   0.000000  -0.000045   0.000000   0.000114
    10  H    0.000000  -0.000000   0.000000   0.000000  -0.000000   0.000002
    11  C    0.000013  -0.000147   0.000003   0.000074  -0.000009  -0.000031
    12  H   -0.000000   0.000004   0.000000  -0.000013  -0.000000   0.000002
    13  H    0.000001  -0.000015  -0.000000   0.000114   0.000000  -0.000009
    14  H   -0.000026  -0.000000  -0.000008   0.000412   0.000079   0.000026
    15  C    0.353753  -0.064931  -0.002223   0.003725  -0.002632  -0.044415
    16  H   -0.044274  -0.001201   0.002766  -0.000031  -0.000476  -0.001270
    17  H   -0.043899  -0.001975  -0.000456  -0.000068   0.002756  -0.000422
    18  H   -0.041639   0.003785  -0.000053  -0.000113  -0.000032  -0.002632
    19  C    4.914192   0.350333  -0.043537  -0.037848  -0.043385   0.697734
    20  C    0.350333   4.907254   0.399852   0.407154   0.401208  -0.044248
    21  H   -0.043537   0.399852   0.584669  -0.026060  -0.035759  -0.000365
    22  H   -0.037848   0.407154  -0.026060   0.568221  -0.028659  -0.003253
    23  H   -0.043385   0.401208  -0.035759  -0.028659   0.587442  -0.000031
    24  C    0.697734  -0.044248  -0.000365  -0.003253  -0.000031   4.962747
    25  H   -0.038449   0.003528  -0.000121   0.000061  -0.000121   0.403391
    26  C   -0.050100  -0.008144   0.000117  -0.002069   0.000367   0.338699
    27  H    0.000438  -0.002693   0.000113  -0.001675  -0.000076  -0.044060
    28  H    0.001583   0.000195   0.000021   0.000058  -0.000014  -0.041394
              25         26         27         28
     1  C    0.000175   0.332330  -0.042369  -0.046841
     2  H    0.000111  -0.041801  -0.003118   0.004515
     3  H    0.001011  -0.046074   0.004477  -0.001931
     4  C   -0.000152  -0.055544  -0.001813  -0.002075
     5  C    0.000010  -0.000661   0.000243  -0.000289
     6  H   -0.000001   0.000086   0.000006   0.000058
     7  H   -0.000000  -0.000109  -0.000005  -0.000050
     8  H    0.000015   0.000609  -0.000015   0.000197
     9  C   -0.000002  -0.004911   0.001406   0.000760
    10  H   -0.000000  -0.000113  -0.000046   0.000001
    11  C    0.000000   0.000577  -0.000082  -0.000033
    12  H    0.000000  -0.000037   0.000037  -0.000000
    13  H    0.000000   0.000163  -0.000140  -0.000000
    14  H   -0.000002  -0.000737  -0.000475  -0.000010
    15  C   -0.006963   0.003126   0.000051  -0.000094
    16  H    0.000187  -0.000131   0.000007   0.000009
    17  H    0.000182  -0.000068  -0.000005  -0.000002
    18  H    0.002335   0.000148   0.000007  -0.000010
    19  C   -0.038449  -0.050100   0.000438   0.001583
    20  C    0.003528  -0.008144  -0.002693   0.000195
    21  H   -0.000121   0.000117   0.000113   0.000021
    22  H    0.000061  -0.002069  -0.001675   0.000058
    23  H   -0.000121   0.000367  -0.000076  -0.000014
    24  C    0.403391   0.338699  -0.044060  -0.041394
    25  H    0.557388  -0.039113   0.003152  -0.003424
    26  C   -0.039113   4.979544   0.415850   0.413482
    27  H    0.003152   0.415850   0.575347  -0.028362
    28  H   -0.003424   0.413482  -0.028362   0.585267
 Mulliken charges:
               1
     1  C   -0.236021
     2  H    0.125346
     3  H    0.115272
     4  C    0.018322
     5  C   -0.341505
     6  H    0.117844
     7  H    0.117792
     8  H    0.114461
     9  C   -0.154256
    10  H    0.115801
    11  C   -0.355567
    12  H    0.120830
    13  H    0.119588
    14  H    0.116140
    15  C   -0.342631
    16  H    0.116356
    17  H    0.115672
    18  H    0.119222
    19  C    0.027222
    20  C   -0.350727
    21  H    0.121058
    22  H    0.120473
    23  H    0.119352
    24  C   -0.163543
    25  H    0.116803
    26  C   -0.235486
    27  H    0.123802
    28  H    0.118380
 Sum of Mulliken charges =  -0.00000
 Mulliken charges with hydrogens summed into heavy atoms:
               1
     1  C    0.004596
     4  C    0.018322
     5  C    0.008593
     9  C   -0.038454
    11  C    0.000991
    15  C    0.008618
    19  C    0.027222
    20  C    0.010156
    24  C   -0.046740
    26  C    0.006696
 Electronic spatial extent (au):  <R**2>=           2384.0045
 Charge=             -0.0000 electrons
 Dipole moment (field-independent basis, Debye):
    X=              0.3027    Y=              0.1253    Z=              0.0460  Tot=              0.3308
 Quadrupole moment (field-independent basis, Debye-Ang):
   XX=            -64.3023   YY=            -63.2901   ZZ=            -67.3956
   XY=              0.7521   XZ=              1.2367   YZ=             -0.3487
 Traceless Quadrupole moment (field-independent basis, Debye-Ang):
   XX=              0.6937   YY=              1.7059   ZZ=             -2.3996
   XY=              0.7521   XZ=              1.2367   YZ=             -0.3487
 Octapole moment (field-independent basis, Debye-Ang**2):
  XXX=              2.6682  YYY=             -2.9989  ZZZ=              0.9000  XYY=             -0.6415
  XXY=              4.0909  XXZ=             -2.0918  XZZ=              1.2120  YZZ=              1.4955
  YYZ=              0.6110  XYZ=             -0.3641
 Hexadecapole moment (field-independent basis, Debye-Ang**3):
 XXXX=          -2435.7143 YYYY=           -693.4926 ZZZZ=           -166.6412 XXXY=              2.3047
 XXXZ=             14.7514 YYYX=            -11.0527 YYYZ=             -1.4214 ZZZX=              2.8120
 ZZZY=             -0.6411 XXYY=           -520.1242 XXZZ=           -449.2337 YYZZ=           -138.3649
 XXYZ=             -4.2785 YYXZ=              0.5784 ZZXY=              5.9188
 N-N= 5.190880729976D+02 E-N=-1.942888885570D+03  KE= 3.887471642215D+02
 No NMR shielding tensors so no spin-rotation constants.
 Leave Link  601 at Fri Sep 17 16:55:08 2021, MaxMem=   524288000 cpu:               0.3 elap:               0.6
 (Enter /opt/gaussian/g16_legacy/l9999.exe)
 1\1\GINC-TRUENO90\FOpt\RMP2-FC\6-31G(d,p)\C10H18\JRAMOS\17-Sep-2021\0\
 \#p opt mp2/6-31g(d,p)\\Conformer number 406. Energy MM = 23.242 kcal/
 mol\\0,1\C,-0.8547327832,-0.3650670308,0.7108342384\H,-0.6041568236,0.
 6675976773,0.9584848202\H,-0.7945512374,-0.9269738855,1.6473845278\C,-
 2.2499194394,-0.476613467,0.1494952005\C,-2.9607971977,-1.7721040308,0
 .4319985747\H,-3.1201784131,-1.9015970639,1.5046840976\H,-3.9290079783
 ,-1.8142686,-0.0653032709\H,-2.3687545898,-2.625419822,0.0937458811\C,
 -2.8255540193,0.4797471407,-0.6028152096\H,-3.825794284,0.2890342081,-
 0.9818814335\C,-2.2338872784,1.8021043649,-0.986539287\H,-2.8518246983
 ,2.6264580662,-0.6254910083\H,-2.1788483621,1.898729203,-2.0725135759\
 H,-1.2296557846,1.9368571536,-0.5911333774\C,3.8469681193,-0.051108734
 5,0.8979590243\H,4.6680197259,-0.0546510376,0.1774340783\H,4.010285085
 3,0.8025630999,1.5596085729\H,3.9105697566,-0.9612733285,1.4923609457\
 C,2.521013406,0.0596486968,0.1972265018\C,2.3576657037,1.2921772035,-0
 .6483827142\H,3.1147913176,1.3203194859,-1.4352409048\H,1.3786707977,1
 .3592357499,-1.1161601221\H,2.5019283072,2.1874844941,-0.0397378446\C,
 1.5817595409,-0.8944888147,0.3393159724\H,1.8113665295,-1.7285497328,0
 .9976895418\C,0.2087129796,-0.9052696702,-0.2644329187\H,0.1706062368,
 -0.3165631503,-1.1818240038\H,-0.0545946168,-1.9281081754,-0.546766306
 7\\Version=EM64L-G16RevA.03\State=1-A\HF=-389.1567534\MP2=-390.5738646
 \RMSD=5.136e-09\RMSF=3.183e-06\Dipole=0.0907142,0.0720527,-0.0097383\P
 G=C01 [X(C10H18)]\\@


 IT TAKES GREATER CHARACTER TO CARRY OFF GOOD FORTUNE THAN BAD.
                     FRENCH PROVERB.
 Job cpu time:       0 days  1 hours 20 minutes 38.8 seconds.
 Elapsed time:       0 days  1 hours 20 minutes 48.5 seconds.
 File lengths (MBytes):  RWF=     32 Int=      0 D2E=      0 Chk=      7 Scr=      1
 Normal termination of Gaussian 16 at Fri Sep 17 16:55:08 2021.
