 Entering Gaussian System, Link 0=/opt/gaussian/g16_legacy/g16
 Input=01-IsoP_3829_gaussian.com
 Output=01-IsoP_3829_gaussian.log
 Initial command:
 /opt/gaussian/g16_legacy/l1.exe "/scratch-local/jramos/2661411/Gau-5952.inp" -scrdir="/scratch-local/jramos/2661411/"
 Entering Link 1 = /opt/gaussian/g16_legacy/l1.exe PID=      5953.
  
 Copyright (c) 1988,1990,1992,1993,1995,1998,2003,2009,2016,
            Gaussian, Inc.  All Rights Reserved.
  
 This is part of the Gaussian(R) 16 program.  It is based on
 the Gaussian(R) 09 system (copyright 2009, Gaussian, Inc.),
 the Gaussian(R) 03 system (copyright 2003, Gaussian, Inc.),
 the Gaussian(R) 98 system (copyright 1998, Gaussian, Inc.),
 the Gaussian(R) 94 system (copyright 1995, Gaussian, Inc.),
 the Gaussian 92(TM) system (copyright 1992, Gaussian, Inc.),
 the Gaussian 90(TM) system (copyright 1990, Gaussian, Inc.),
 the Gaussian 88(TM) system (copyright 1988, Gaussian, Inc.),
 the Gaussian 86(TM) system (copyright 1986, Carnegie Mellon
 University), and the Gaussian 82(TM) system (copyright 1983,
 Carnegie Mellon University). Gaussian is a federally registered
 trademark of Gaussian, Inc.
  
 This software contains proprietary and confidential information,
 including trade secrets, belonging to Gaussian, Inc.
  
 This software is provided under written license and may be
 used, copied, transmitted, or stored only in accord with that
 written license.
  
 The following legend is applicable only to US Government
 contracts under FAR:
  
                    RESTRICTED RIGHTS LEGEND
  
 Use, reproduction and disclosure by the US Government is
 subject to restrictions as set forth in subparagraphs (a)
 and (c) of the Commercial Computer Software - Restricted
 Rights clause in FAR 52.227-19.
  
 Gaussian, Inc.
 340 Quinnipiac St., Bldg. 40, Wallingford CT 06492
  
  
 ---------------------------------------------------------------
 Warning -- This program may not be used in any manner that
 competes with the business of Gaussian, Inc. or will provide
 assistance to any competitor of Gaussian, Inc.  The licensee
 of this program is prohibited from giving any competitor of
 Gaussian, Inc. access to this program.  By using this program,
 the user acknowledges that Gaussian, Inc. is engaged in the
 business of creating and licensing software in the field of
 computational chemistry and represents and warrants to the
 licensee that it is not a competitor of Gaussian, Inc. and that
 it will not use this program in any manner prohibited above.
 ---------------------------------------------------------------
  

 Cite this work as:
 Gaussian 16, Revision A.03,
 M. J. Frisch, G. W. Trucks, H. B. Schlegel, G. E. Scuseria, 
 M. A. Robb, J. R. Cheeseman, G. Scalmani, V. Barone, 
 G. A. Petersson, H. Nakatsuji, X. Li, M. Caricato, A. V. Marenich, 
 J. Bloino, B. G. Janesko, R. Gomperts, B. Mennucci, H. P. Hratchian, 
 J. V. Ortiz, A. F. Izmaylov, J. L. Sonnenberg, D. Williams-Young, 
 F. Ding, F. Lipparini, F. Egidi, J. Goings, B. Peng, A. Petrone, 
 T. Henderson, D. Ranasinghe, V. G. Zakrzewski, J. Gao, N. Rega, 
 G. Zheng, W. Liang, M. Hada, M. Ehara, K. Toyota, R. Fukuda, 
 J. Hasegawa, M. Ishida, T. Nakajima, Y. Honda, O. Kitao, H. Nakai, 
 T. Vreven, K. Throssell, J. A. Montgomery, Jr., J. E. Peralta, 
 F. Ogliaro, M. J. Bearpark, J. J. Heyd, E. N. Brothers, K. N. Kudin, 
 V. N. Staroverov, T. A. Keith, R. Kobayashi, J. Normand, 
 K. Raghavachari, A. P. Rendell, J. C. Burant, S. S. Iyengar, 
 J. Tomasi, M. Cossi, J. M. Millam, M. Klene, C. Adamo, R. Cammi, 
 J. W. Ochterski, R. L. Martin, K. Morokuma, O. Farkas, 
 J. B. Foresman, and D. J. Fox, Gaussian, Inc., Wallingford CT, 2016.
 
 ******************************************
 Gaussian 16:  EM64L-G16RevA.03 25-Dec-2016
                17-Sep-2021 
 ******************************************
 %chk=01-IsoP_3829_gaussian.chk
 %nproc=1
 Will use up to    1 processors via shared memory.
 %mem=4000Mb
 ---------------------
 #p opt mp2/6-31g(d,p)
 ---------------------
 1/18=20,19=15,38=1/1,3;
 2/9=110,12=2,17=6,18=5,40=1/2;
 3/5=1,6=6,7=101,11=9,25=1,30=1,71=1/1,2,3;
 4//1;
 5/5=2,38=5/2;
 8/6=4,10=2/1;
 9/15=2,16=-3/6;
 10/5=1/2;
 6/7=2,8=2,9=2,10=2/1;
 7/12=2/1,2,3,16;
 1/18=20,19=15/3(2);
 2/9=110/2;
 99//99;
 2/9=110/2;
 3/5=1,6=6,7=101,11=9,25=1,30=1,71=1/1,2,3;
 4/5=5,16=3,69=1/1;
 5/5=2,38=5/2;
 8/6=4,10=2/1;
 9/15=2,16=-3/6;
 10/5=1/2;
 7/12=2/1,2,3,16;
 1/18=20,19=15/3(-8);
 2/9=110/2;
 6/7=2,8=2,9=2,10=2/1;
 99//99;
 Leave Link    1 at Fri Sep 17 15:25:41 2021, MaxMem=   524288000 cpu:               0.0 elap:               0.3
 (Enter /opt/gaussian/g16_legacy/l101.exe)
 --------------------------------------------------
 Conformer number 3829. Energy MM = 23.242 kcal/mol
 --------------------------------------------------
 Symbolic Z-matrix:
 Charge =  0 Multiplicity = 1
 C                    -0.7267    0.9108    0.3014 
 H                    -0.5666    0.9629   -0.7821 
 H                    -0.5429    1.9317    0.6624 
 C                    -2.1595    0.5286    0.6105 
 C                    -2.6918    1.0517    1.92 
 H                    -3.7324    0.757     2.0922 
 H                    -2.0976    0.6681    2.7553 
 H                    -2.6509    2.1457    1.9364 
 C                    -2.9451   -0.2021   -0.2054 
 H                    -3.9713   -0.4029    0.1012 
 C                    -2.573    -0.816    -1.518 
 H                    -2.8335   -1.8793   -1.5097 
 H                    -3.133    -0.3346   -2.3254 
 H                    -1.5073   -0.7445   -1.7461 
 C                     2.1765   -1.3439   -1.2007 
 H                     2.4023   -1.0689   -2.2367 
 H                     2.7601   -2.2344   -0.9458 
 H                     1.1186   -1.614    -1.1695 
 C                     2.5319   -0.2113   -0.2773 
 C                     3.9409    0.2981   -0.4351 
 H                     4.1673    1.1168    0.256 
 H                     4.0986    0.6692   -1.4531 
 H                     4.6578   -0.5068   -0.2425 
 C                     1.6971    0.345     0.6222 
 H                     2.0628    1.1763    1.2252 
 C                     0.2796   -0.0572    0.9316 
 H                     0.164    -0.0627    2.0229 
 H                     0.0738   -1.0834    0.6099 
 
 ITRead=  0  0  0  0  0  0  0  0  0  0  0  0  0  0  0  0  0  0  0  0
 ITRead=  0  0  0  0  0  0  0  0
 MicOpt= -1 -1 -1 -1 -1 -1 -1 -1 -1 -1 -1 -1 -1 -1 -1 -1 -1 -1 -1 -1
 MicOpt= -1 -1 -1 -1 -1 -1 -1 -1
 NAtoms=     28 NQM=       28 NQMF=       0 NMMI=      0 NMMIF=      0
                NMic=       0 NMicF=      0.
                    Isotopes and Nuclear Properties:
 (Nuclear quadrupole moments (NQMom) in fm**2, nuclear magnetic moments (NMagM)
  in nuclear magnetons)

  Atom         1           2           3           4           5           6           7           8           9          10
 IAtWgt=          12           1           1          12          12           1           1           1          12           1
 AtmWgt=  12.0000000   1.0078250   1.0078250  12.0000000  12.0000000   1.0078250   1.0078250   1.0078250  12.0000000   1.0078250
 NucSpn=           0           1           1           0           0           1           1           1           0           1
 AtZEff=  -0.0000000  -0.0000000  -0.0000000  -0.0000000  -0.0000000  -0.0000000  -0.0000000  -0.0000000  -0.0000000  -0.0000000
 NQMom=    0.0000000   0.0000000   0.0000000   0.0000000   0.0000000   0.0000000   0.0000000   0.0000000   0.0000000   0.0000000
 NMagM=    0.0000000   2.7928460   2.7928460   0.0000000   0.0000000   2.7928460   2.7928460   2.7928460   0.0000000   2.7928460
 AtZNuc=   6.0000000   1.0000000   1.0000000   6.0000000   6.0000000   1.0000000   1.0000000   1.0000000   6.0000000   1.0000000

  Atom        11          12          13          14          15          16          17          18          19          20
 IAtWgt=          12           1           1           1          12           1           1           1          12          12
 AtmWgt=  12.0000000   1.0078250   1.0078250   1.0078250  12.0000000   1.0078250   1.0078250   1.0078250  12.0000000  12.0000000
 NucSpn=           0           1           1           1           0           1           1           1           0           0
 AtZEff=  -0.0000000  -0.0000000  -0.0000000  -0.0000000  -0.0000000  -0.0000000  -0.0000000  -0.0000000  -0.0000000  -0.0000000
 NQMom=    0.0000000   0.0000000   0.0000000   0.0000000   0.0000000   0.0000000   0.0000000   0.0000000   0.0000000   0.0000000
 NMagM=    0.0000000   2.7928460   2.7928460   2.7928460   0.0000000   2.7928460   2.7928460   2.7928460   0.0000000   0.0000000
 AtZNuc=   6.0000000   1.0000000   1.0000000   1.0000000   6.0000000   1.0000000   1.0000000   1.0000000   6.0000000   6.0000000

  Atom        21          22          23          24          25          26          27          28
 IAtWgt=           1           1           1          12           1          12           1           1
 AtmWgt=   1.0078250   1.0078250   1.0078250  12.0000000   1.0078250  12.0000000   1.0078250   1.0078250
 NucSpn=           1           1           1           0           1           0           1           1
 AtZEff=  -0.0000000  -0.0000000  -0.0000000  -0.0000000  -0.0000000  -0.0000000  -0.0000000  -0.0000000
 NQMom=    0.0000000   0.0000000   0.0000000   0.0000000   0.0000000   0.0000000   0.0000000   0.0000000
 NMagM=    2.7928460   2.7928460   2.7928460   0.0000000   2.7928460   0.0000000   2.7928460   2.7928460
 AtZNuc=   1.0000000   1.0000000   1.0000000   6.0000000   1.0000000   6.0000000   1.0000000   1.0000000
 Leave Link  101 at Fri Sep 17 15:25:41 2021, MaxMem=   524288000 cpu:               0.3 elap:               0.3
 (Enter /opt/gaussian/g16_legacy/l103.exe)

 GradGradGradGradGradGradGradGradGradGradGradGradGradGradGradGradGradGrad
 Berny optimization.
 Initialization pass.
                           ----------------------------
                           !    Initial Parameters    !
                           ! (Angstroms and Degrees)  !
 --------------------------                            --------------------------
 ! Name  Definition              Value          Derivative Info.                !
 --------------------------------------------------------------------------------
 ! R1    R(1,2)                  1.0965         estimate D2E/DX2                !
 ! R2    R(1,3)                  1.0983         estimate D2E/DX2                !
 ! R3    R(1,4)                  1.5148         estimate D2E/DX2                !
 ! R4    R(1,26)                 1.5319         estimate D2E/DX2                !
 ! R5    R(4,5)                  1.5072         estimate D2E/DX2                !
 ! R6    R(4,9)                  1.3479         estimate D2E/DX2                !
 ! R7    R(5,6)                  1.0951         estimate D2E/DX2                !
 ! R8    R(5,7)                  1.0945         estimate D2E/DX2                !
 ! R9    R(5,8)                  1.0949         estimate D2E/DX2                !
 ! R10   R(9,10)                 1.0897         estimate D2E/DX2                !
 ! R11   R(9,11)                 1.4961         estimate D2E/DX2                !
 ! R12   R(11,12)                1.0948         estimate D2E/DX2                !
 ! R13   R(11,13)                1.0942         estimate D2E/DX2                !
 ! R14   R(11,14)                1.0922         estimate D2E/DX2                !
 ! R15   R(15,16)                1.0954         estimate D2E/DX2                !
 ! R16   R(15,17)                1.0948         estimate D2E/DX2                !
 ! R17   R(15,18)                1.0923         estimate D2E/DX2                !
 ! R18   R(15,19)                1.5039         estimate D2E/DX2                !
 ! R19   R(19,20)                1.5065         estimate D2E/DX2                !
 ! R20   R(19,24)                1.3474         estimate D2E/DX2                !
 ! R21   R(20,21)                1.0951         estimate D2E/DX2                !
 ! R22   R(20,22)                1.0949         estimate D2E/DX2                !
 ! R23   R(20,23)                1.0949         estimate D2E/DX2                !
 ! R24   R(24,25)                1.0901         estimate D2E/DX2                !
 ! R25   R(24,26)                1.5056         estimate D2E/DX2                !
 ! R26   R(26,27)                1.0974         estimate D2E/DX2                !
 ! R27   R(26,28)                1.095          estimate D2E/DX2                !
 ! A1    A(2,1,3)              104.8437         estimate D2E/DX2                !
 ! A2    A(2,1,4)              110.5934         estimate D2E/DX2                !
 ! A3    A(2,1,26)             109.914          estimate D2E/DX2                !
 ! A4    A(3,1,4)              109.0107         estimate D2E/DX2                !
 ! A5    A(3,1,26)             110.0107         estimate D2E/DX2                !
 ! A6    A(4,1,26)             112.2073         estimate D2E/DX2                !
 ! A7    A(1,4,5)              115.0728         estimate D2E/DX2                !
 ! A8    A(1,4,9)              124.3719         estimate D2E/DX2                !
 ! A9    A(5,4,9)              120.5449         estimate D2E/DX2                !
 ! A10   A(4,5,6)              112.2588         estimate D2E/DX2                !
 ! A11   A(4,5,7)              110.4681         estimate D2E/DX2                !
 ! A12   A(4,5,8)              110.2794         estimate D2E/DX2                !
 ! A13   A(6,5,7)              107.55           estimate D2E/DX2                !
 ! A14   A(6,5,8)              107.5788         estimate D2E/DX2                !
 ! A15   A(7,5,8)              108.5711         estimate D2E/DX2                !
 ! A16   A(4,9,10)             118.5852         estimate D2E/DX2                !
 ! A17   A(4,9,11)             127.4863         estimate D2E/DX2                !
 ! A18   A(10,9,11)            113.9207         estimate D2E/DX2                !
 ! A19   A(9,11,12)            109.4332         estimate D2E/DX2                !
 ! A20   A(9,11,13)            109.8512         estimate D2E/DX2                !
 ! A21   A(9,11,14)            113.5194         estimate D2E/DX2                !
 ! A22   A(12,11,13)           108.1271         estimate D2E/DX2                !
 ! A23   A(12,11,14)           107.2982         estimate D2E/DX2                !
 ! A24   A(13,11,14)           108.4499         estimate D2E/DX2                !
 ! A25   A(16,15,17)           108.3321         estimate D2E/DX2                !
 ! A26   A(16,15,18)           106.7826         estimate D2E/DX2                !
 ! A27   A(16,15,19)           110.055          estimate D2E/DX2                !
 ! A28   A(17,15,18)           107.9691         estimate D2E/DX2                !
 ! A29   A(17,15,19)           110.0989         estimate D2E/DX2                !
 ! A30   A(18,15,19)           113.4262         estimate D2E/DX2                !
 ! A31   A(15,19,20)           114.2894         estimate D2E/DX2                !
 ! A32   A(15,19,24)           125.0588         estimate D2E/DX2                !
 ! A33   A(20,19,24)           120.6489         estimate D2E/DX2                !
 ! A34   A(19,20,21)           112.3368         estimate D2E/DX2                !
 ! A35   A(19,20,22)           110.2844         estimate D2E/DX2                !
 ! A36   A(19,20,23)           110.2039         estimate D2E/DX2                !
 ! A37   A(21,20,22)           107.6736         estimate D2E/DX2                !
 ! A38   A(21,20,23)           107.6507         estimate D2E/DX2                !
 ! A39   A(22,20,23)           108.5651         estimate D2E/DX2                !
 ! A40   A(19,24,25)           118.442          estimate D2E/DX2                !
 ! A41   A(19,24,26)           127.605          estimate D2E/DX2                !
 ! A42   A(25,24,26)           113.9458         estimate D2E/DX2                !
 ! A43   A(1,26,24)            111.4145         estimate D2E/DX2                !
 ! A44   A(1,26,27)            110.0631         estimate D2E/DX2                !
 ! A45   A(1,26,28)            110.3576         estimate D2E/DX2                !
 ! A46   A(24,26,27)           107.7503         estimate D2E/DX2                !
 ! A47   A(24,26,28)           111.5272         estimate D2E/DX2                !
 ! A48   A(27,26,28)           105.5255         estimate D2E/DX2                !
 ! D1    D(2,1,4,5)           -151.4129         estimate D2E/DX2                !
 ! D2    D(2,1,4,9)             27.4175         estimate D2E/DX2                !
 ! D3    D(3,1,4,5)            -36.6467         estimate D2E/DX2                !
 ! D4    D(3,1,4,9)            142.1837         estimate D2E/DX2                !
 ! D5    D(26,1,4,5)            85.4662         estimate D2E/DX2                !
 ! D6    D(26,1,4,9)           -95.7034         estimate D2E/DX2                !
 ! D7    D(2,1,26,24)           56.9325         estimate D2E/DX2                !
 ! D8    D(2,1,26,27)          176.3959         estimate D2E/DX2                !
 ! D9    D(2,1,26,28)          -67.5347         estimate D2E/DX2                !
 ! D10   D(3,1,26,24)          -58.0231         estimate D2E/DX2                !
 ! D11   D(3,1,26,27)           61.4403         estimate D2E/DX2                !
 ! D12   D(3,1,26,28)          177.5097         estimate D2E/DX2                !
 ! D13   D(4,1,26,24)         -179.5651         estimate D2E/DX2                !
 ! D14   D(4,1,26,27)          -60.1018         estimate D2E/DX2                !
 ! D15   D(4,1,26,28)           55.9676         estimate D2E/DX2                !
 ! D16   D(1,4,5,6)            179.4389         estimate D2E/DX2                !
 ! D17   D(1,4,5,7)            -60.5253         estimate D2E/DX2                !
 ! D18   D(1,4,5,8)             59.4962         estimate D2E/DX2                !
 ! D19   D(9,4,5,6)              0.5599         estimate D2E/DX2                !
 ! D20   D(9,4,5,7)            120.5957         estimate D2E/DX2                !
 ! D21   D(9,4,5,8)           -119.3828         estimate D2E/DX2                !
 ! D22   D(1,4,9,10)          -178.6017         estimate D2E/DX2                !
 ! D23   D(1,4,9,11)             2.484          estimate D2E/DX2                !
 ! D24   D(5,4,9,10)             0.1681         estimate D2E/DX2                !
 ! D25   D(5,4,9,11)          -178.7462         estimate D2E/DX2                !
 ! D26   D(4,9,11,12)          127.7525         estimate D2E/DX2                !
 ! D27   D(4,9,11,13)         -113.6836         estimate D2E/DX2                !
 ! D28   D(4,9,11,14)            7.9228         estimate D2E/DX2                !
 ! D29   D(10,9,11,12)         -51.2046         estimate D2E/DX2                !
 ! D30   D(10,9,11,13)          67.3594         estimate D2E/DX2                !
 ! D31   D(10,9,11,14)        -171.0342         estimate D2E/DX2                !
 ! D32   D(16,15,19,20)        -52.7888         estimate D2E/DX2                !
 ! D33   D(16,15,19,24)        126.6012         estimate D2E/DX2                !
 ! D34   D(17,15,19,20)         66.56           estimate D2E/DX2                !
 ! D35   D(17,15,19,24)       -114.05           estimate D2E/DX2                !
 ! D36   D(18,15,19,20)       -172.3376         estimate D2E/DX2                !
 ! D37   D(18,15,19,24)          7.0524         estimate D2E/DX2                !
 ! D38   D(15,19,20,21)       -179.6269         estimate D2E/DX2                !
 ! D39   D(15,19,20,22)         60.2549         estimate D2E/DX2                !
 ! D40   D(15,19,20,23)        -59.5932         estimate D2E/DX2                !
 ! D41   D(24,19,20,21)          0.9535         estimate D2E/DX2                !
 ! D42   D(24,19,20,22)       -119.1647         estimate D2E/DX2                !
 ! D43   D(24,19,20,23)        120.9872         estimate D2E/DX2                !
 ! D44   D(15,19,24,25)       -178.8287         estimate D2E/DX2                !
 ! D45   D(15,19,24,26)          2.2119         estimate D2E/DX2                !
 ! D46   D(20,19,24,25)          0.525          estimate D2E/DX2                !
 ! D47   D(20,19,24,26)       -178.4344         estimate D2E/DX2                !
 ! D48   D(19,24,26,1)        -103.3617         estimate D2E/DX2                !
 ! D49   D(19,24,26,27)        135.8108         estimate D2E/DX2                !
 ! D50   D(19,24,26,28)         20.4453         estimate D2E/DX2                !
 ! D51   D(25,24,26,1)          77.6395         estimate D2E/DX2                !
 ! D52   D(25,24,26,27)        -43.188          estimate D2E/DX2                !
 ! D53   D(25,24,26,28)       -158.5535         estimate D2E/DX2                !
 --------------------------------------------------------------------------------
 Trust Radius=3.00D-01 FncErr=1.00D-07 GrdErr=1.00D-07 EigMax=2.50D+02 EigMin=1.00D-04
 Number of steps in this run=    138 maximum allowed number of steps=    168.
 GradGradGradGradGradGradGradGradGradGradGradGradGradGradGradGradGradGrad

 Leave Link  103 at Fri Sep 17 15:25:42 2021, MaxMem=   524288000 cpu:               0.1 elap:               0.3
 (Enter /opt/gaussian/g16_legacy/l202.exe)
                          Input orientation:                          
 ---------------------------------------------------------------------
 Center     Atomic      Atomic             Coordinates (Angstroms)
 Number     Number       Type             X           Y           Z
 ---------------------------------------------------------------------
      1          6           0       -0.726700    0.910800    0.301400
      2          1           0       -0.566600    0.962900   -0.782100
      3          1           0       -0.542900    1.931700    0.662400
      4          6           0       -2.159500    0.528600    0.610500
      5          6           0       -2.691800    1.051700    1.920000
      6          1           0       -3.732400    0.757000    2.092200
      7          1           0       -2.097600    0.668100    2.755300
      8          1           0       -2.650900    2.145700    1.936400
      9          6           0       -2.945100   -0.202100   -0.205400
     10          1           0       -3.971300   -0.402900    0.101200
     11          6           0       -2.573000   -0.816000   -1.518000
     12          1           0       -2.833500   -1.879300   -1.509700
     13          1           0       -3.133000   -0.334600   -2.325400
     14          1           0       -1.507300   -0.744500   -1.746100
     15          6           0        2.176500   -1.343900   -1.200700
     16          1           0        2.402300   -1.068900   -2.236700
     17          1           0        2.760100   -2.234400   -0.945800
     18          1           0        1.118600   -1.614000   -1.169500
     19          6           0        2.531900   -0.211300   -0.277300
     20          6           0        3.940900    0.298100   -0.435100
     21          1           0        4.167300    1.116800    0.256000
     22          1           0        4.098600    0.669200   -1.453100
     23          1           0        4.657800   -0.506800   -0.242500
     24          6           0        1.697100    0.345000    0.622200
     25          1           0        2.062800    1.176300    1.225200
     26          6           0        0.279600   -0.057200    0.931600
     27          1           0        0.164000   -0.062700    2.022900
     28          1           0        0.073800   -1.083400    0.609900
 ---------------------------------------------------------------------
                    Distance matrix (angstroms):
                    1          2          3          4          5
     1  C    0.000000
     2  H    1.096503   0.000000
     3  H    1.098335   1.739458   0.000000
     4  C    1.514772   2.159926   2.141210   0.000000
     5  C    2.549772   3.438852   2.640782   1.507238   0.000000
     6  H    3.502121   4.280921   3.687432   2.172928   1.095148
     7  H    2.821329   3.865756   2.897241   2.150223   1.094508
     8  H    2.810827   3.624026   2.472354   2.148138   1.094887
     9  C    2.533119   2.710548   3.328174   1.347881   2.480625
    10  H    3.506183   3.773276   4.185598   2.099928   2.657257
    11  C    3.114623   2.780589   4.052815   2.551361   3.914366
    12  H    3.937429   3.707605   4.948595   3.278339   4.513722
    13  H    3.773775   3.263693   4.557596   3.211281   4.487751
    14  H    2.746199   2.174725   3.727330   2.756758   4.250843
    15  C    3.970963   3.608483   4.647132   5.058418   6.259234
    16  H    4.489076   3.880521   5.107111   5.609686   6.908325
    17  H    4.858556   4.616975   5.554503   5.853093   6.981008
    18  H    3.455907   3.103287   4.323011   4.301752   5.583020
    19  C    3.494635   3.351756   3.863920   4.831653   5.806060
    20  C    4.764905   4.569456   4.896695   6.193649   7.078638
    21  H    4.898544   4.848829   4.797417   6.363965   7.058356
    22  H    5.140055   4.722350   5.254785   6.591057   7.591682
    23  H    5.594485   5.453947   5.814844   6.948039   7.818053
    24  C    2.509551   2.734629   2.745329   3.860986   4.630999
    25  H    2.950459   3.314896   2.770748   4.315691   4.806713
    26  C    1.531932   2.166432   2.169032   2.528928   3.322019
    27  H    2.169012   3.074680   2.515611   2.782654   3.067258
    28  H    2.170900   2.556388   3.077971   2.754301   3.731428
                    6          7          8          9         10
     6  H    0.000000
     7  H    1.766402   0.000000
     8  H    1.767032   1.777650   0.000000
     9  C    2.611260   3.200195   3.191555   0.000000
    10  H    2.316576   3.420824   3.406872   1.089684   0.000000
    11  C    4.105129   4.548588   4.550892   1.496078   2.178922
    12  H    4.553217   5.022053   5.301846   2.127593   2.463604
    13  H    4.589778   5.281190   4.954518   2.132431   2.568229
    14  H    4.683815   4.754629   4.818909   2.176057   3.098468
    15  C    7.083225   6.161656   6.732198   5.340891   6.354201
    16  H    7.727084   6.941638   7.299537   5.785517   6.821445
    17  H    7.767269   6.761649   7.534671   6.101454   7.054243
    18  H    6.308132   5.563810   6.163691   4.408697   5.384099
    19  C    6.767096   5.603773   6.108791   5.477480   6.517023
    20  C    8.091809   6.839520   7.244961   6.907963   7.961277
    21  H    8.118272   6.759941   7.097199   7.248353   8.280716
    22  H    8.596594   7.490229   7.695746   7.206222   8.287855
    23  H    8.800197   7.483490   8.074680   7.609094   8.636567
    24  C    5.640046   4.365118   4.886179   4.747027   5.741215
    25  H    5.874678   4.461883   4.864618   5.387547   6.337792
    26  C    4.255121   3.082697   3.801345   3.422346   4.345023
    27  H    3.982291   2.487029   3.578851   3.827696   4.572677
    28  H    4.480117   3.519300   4.428395   3.248871   4.133363
                   11         12         13         14         15
    11  C    0.000000
    12  H    1.094777   0.000000
    13  H    1.094185   1.772333   0.000000
    14  H    1.092181   1.761381   1.773840   0.000000
    15  C    4.789270   5.047993   5.520365   3.771886   0.000000
    16  H    5.033299   5.347792   5.584497   3.953593   1.095403
    17  H    5.548083   5.633155   6.343592   4.590314   1.094785
    18  H    3.792910   3.975577   4.587927   2.825570   1.092282
    19  C    5.288195   5.752265   6.025032   4.330914   1.503915
    20  C    6.696625   7.196411   7.349395   5.699879   2.528916
    21  H    7.232872   7.817001   7.878107   6.298724   3.484294
    22  H    6.835223   7.385937   7.352861   5.788826   2.794771
    23  H    7.348944   7.720695   8.066269   6.350258   2.788500
    24  C    4.915499   5.478946   5.699129   4.130864   2.530844
    25  H    5.743261   6.386715   6.471933   5.026302   3.499904
    26  C    3.835837   4.355615   4.725552   3.291728   3.130580
    27  H    4.538348   4.976375   5.463685   4.178930   4.010390
    28  H    3.406613   3.684909   4.411378   2.857528   2.787020
                   16         17         18         19         20
    16  H    0.000000
    17  H    1.775622   0.000000
    18  H    1.756114   1.769028   0.000000
    19  C    2.142784   2.142872   2.181973   0.000000
    20  C    2.735277   2.840539   3.487241   1.506542   0.000000
    21  H    3.755804   3.828195   4.334039   2.173198   1.095055
    22  H    2.551951   3.237256   3.764815   2.147635   1.094947
    23  H    3.062690   2.660921   3.822454   2.146621   1.094945
    24  C    3.266455   3.200296   2.717082   1.347390   2.480871
    25  H    4.140161   4.102724   3.796298   2.098331   2.656142
    26  C    3.945569   3.797066   2.746301   2.560867   3.924185
    27  H    4.915955   4.502132   3.675488   3.304535   4.520721
    28  H    3.677670   3.310772   2.130589   2.754984   4.237338
                   21         22         23         24         25
    21  H    0.000000
    22  H    1.768075   0.000000
    23  H    1.767815   1.777986   0.000000
    24  C    2.613746   3.190482   3.199846   0.000000
    25  H    2.317716   3.402194   3.423594   1.090140   0.000000
    26  C    4.116907   4.560615   4.555138   1.505589   2.188041
    27  H    4.532060   5.300880   5.052079   2.116264   2.403516
    28  H    4.660780   4.850422   4.698096   2.162309   3.072614
                   26         27         28
    26  C    0.000000
    27  H    1.097419   0.000000
    28  H    1.094957   1.745432   0.000000
 Stoichiometry    C10H18
 Framework group  C1[X(C10H18)]
 Deg. of freedom    78
 Full point group                 C1      NOp   1
 Largest Abelian subgroup         C1      NOp   1
 Largest concise Abelian subgroup C1      NOp   1
                         Standard orientation:                         
 ---------------------------------------------------------------------
 Center     Atomic      Atomic             Coordinates (Angstroms)
 Number     Number       Type             X           Y           Z
 ---------------------------------------------------------------------
      1          6           0       -0.793781   -0.586469    0.589193
      2          1           0       -0.484572    0.235214    1.246114
      3          1           0       -0.746004   -1.484289    1.220048
      4          6           0       -2.220860   -0.386995    0.122084
      5          6           0       -2.975685   -1.655039   -0.184621
      6          1           0       -4.003257   -1.458181   -0.508182
      7          1           0       -2.478695   -2.212242   -0.984918
      8          1           0       -3.025277   -2.291702    0.704748
      9          6           0       -2.820224    0.813938   -0.001636
     10          1           0       -3.860392    0.846696   -0.324726
     11          6           0       -2.215708    2.161872    0.234762
     12          1           0       -2.388733    2.797139   -0.639901
     13          1           0       -2.690796    2.635763    1.099030
     14          1           0       -1.137488    2.131987    0.406245
     15          6           0        2.465987    1.425955   -0.456087
     16          1           0        2.815342    2.072788    0.355987
     17          1           0        3.076376    1.626138   -1.342600
     18          1           0        1.439610    1.725933   -0.678898
     19          6           0        2.593398   -0.018223   -0.056245
     20          6           0        3.965110   -0.408007    0.429705
     21          1           0        4.023734   -1.466068    0.705778
     22          1           0        4.237015    0.181215    1.311631
     23          1           0        4.709073   -0.227434   -0.353121
     24          6           0        1.596351   -0.923574   -0.097451
     25          1           0        1.804014   -1.940187    0.236883
     26          6           0        0.185922   -0.715569   -0.581419
     27          1           0       -0.084241   -1.577113   -1.205184
     28          1           0        0.111230    0.157017   -1.238645
 ---------------------------------------------------------------------
 Rotational constants (GHZ):           2.2180900           0.5802317           0.4854228
 Leave Link  202 at Fri Sep 17 15:25:42 2021, MaxMem=   524288000 cpu:               0.1 elap:               0.1
 (Enter /opt/gaussian/g16_legacy/l301.exe)
 Standard basis: 6-31G(d,p) (6D, 7F)
 Ernie: Thresh=  0.10000D-02 Tol=  0.10000D-05 Strict=F.
 There are   240 symmetry adapted cartesian basis functions of A   symmetry.
 There are   240 symmetry adapted basis functions of A   symmetry.
   240 basis functions,   406 primitive gaussians,   240 cartesian basis functions
    39 alpha electrons       39 beta electrons
       nuclear repulsion energy       516.4347499259 Hartrees.
 IExCor=    0 DFT=F Ex=HF Corr=None ExCW=0 ScaHFX=  1.000000
 ScaDFX=  1.000000  1.000000  1.000000  1.000000 ScalE2=  1.000000  1.000000
 IRadAn=      5 IRanWt=     -1 IRanGd=            0 ICorTp=0 IEmpDi=  4
 NAtoms=   28 NActive=   28 NUniq=   28 SFac= 1.00D+00 NAtFMM=   60 NAOKFM=F Big=F
 Integral buffers will be    131072 words long.
 Raffenetti 1 integral format.
 Two-electron integral symmetry is turned on.
 Leave Link  301 at Fri Sep 17 15:25:42 2021, MaxMem=   524288000 cpu:               0.1 elap:               0.2
 (Enter /opt/gaussian/g16_legacy/l302.exe)
 NPDir=0 NMtPBC=     1 NCelOv=     1 NCel=       1 NClECP=     1 NCelD=      1
         NCelK=      1 NCelE2=     1 NClLst=     1 CellRange=     0.0.
 One-electron integrals computed using PRISM.
 One-electron integral symmetry used in STVInt
 NBasis=   240 RedAO= T EigKep=  2.10D-03  NBF=   240
 NBsUse=   240 1.00D-06 EigRej= -1.00D+00 NBFU=   240
 Leave Link  302 at Fri Sep 17 15:25:43 2021, MaxMem=   524288000 cpu:               0.3 elap:               0.5
 (Enter /opt/gaussian/g16_legacy/l303.exe)
 DipDrv:  MaxL=1.
 Leave Link  303 at Fri Sep 17 15:25:43 2021, MaxMem=   524288000 cpu:               0.1 elap:               0.1
 (Enter /opt/gaussian/g16_legacy/l401.exe)
 ExpMin= 1.61D-01 ExpMax= 3.05D+03 ExpMxC= 4.57D+02 IAcc=3 IRadAn=         5 AccDes= 0.00D+00
 Harris functional with IExCor=  205 and IRadAn=       5 diagonalized for initial guess.
 HarFok:  IExCor=  205 AccDes= 0.00D+00 IRadAn=         5 IDoV= 1 UseB2=F ITyADJ=14
 ICtDFT=  3500011 ScaDFX=  1.000000  1.000000  1.000000  1.000000
 FoFCou: FMM=F IPFlag=           0 FMFlag=      100000 FMFlg1=           0
         NFxFlg=           0 DoJE=T BraDBF=F KetDBF=T FulRan=T
         wScrn=  0.000000 ICntrl=       500 IOpCl=  0 I1Cent=   200000004 NGrid=           0
         NMat0=    1 NMatS0=      1 NMatT0=    0 NMatD0=    1 NMtDS0=    0 NMtDT0=    0
 Petite list used in FoFCou.
 Harris En= -390.109901761895    
 JPrj=0 DoOrth=F DoCkMO=F.
 Leave Link  401 at Fri Sep 17 15:25:56 2021, MaxMem=   524288000 cpu:              12.0 elap:              12.2
 (Enter /opt/gaussian/g16_legacy/l502.exe)
 Keep R1 ints in memory in canonical form, NReq=425198025.
 FoFCou: FMM=F IPFlag=           0 FMFlag=           0 FMFlg1=           0
         NFxFlg=           0 DoJE=F BraDBF=F KetDBF=F FulRan=T
         wScrn=  0.000000 ICntrl=       600 IOpCl=  0 I1Cent=           0 NGrid=           0
         NMat0=    1 NMatS0=  28920 NMatT0=    0 NMatD0=    1 NMtDS0=    0 NMtDT0=    0
 Symmetry not used in FoFCou.
 Two-electron integral symmetry not used.
 Closed shell SCF:
 Using DIIS extrapolation, IDIIS=  1040.
 NGot=   524288000 LenX=   105970886 LenY=   105912845
 Requested convergence on RMS density matrix=1.00D-08 within 128 cycles.
 Requested convergence on MAX density matrix=1.00D-06.
 Requested convergence on             energy=1.00D-06.
 No special actions if energy rises.

 Cycle   1  Pass 1  IDiag  1:
 E= -388.533179165102    
 DIIS: error= 5.21D-02 at cycle   1 NSaved=   1.
 NSaved= 1 IEnMin= 1 EnMin= -388.533179165102     IErMin= 1 ErrMin= 5.21D-02
 ErrMax= 5.21D-02  0.00D+00 EMaxC= 1.00D-01 BMatC= 8.07D-01 BMatP= 8.07D-01
 IDIUse=3 WtCom= 4.79D-01 WtEn= 5.21D-01
 Coeff-Com:  0.100D+01
 Coeff-En:   0.100D+01
 Coeff:      0.100D+01
 Gap=     0.508 Goal=   None    Shift=    0.000
 GapD=    0.508 DampG=2.000 DampE=0.500 DampFc=1.0000 IDamp=-1.
 RMSDP=4.00D-03 MaxDP=1.14D-01              OVMax= 1.33D-01

 Cycle   2  Pass 1  IDiag  1:
 E= -389.073876536053     Delta-E=       -0.540697370951 Rises=F Damp=F
 DIIS: error= 1.59D-02 at cycle   2 NSaved=   2.
 NSaved= 2 IEnMin= 2 EnMin= -389.073876536053     IErMin= 2 ErrMin= 1.59D-02
 ErrMax= 1.59D-02  0.00D+00 EMaxC= 1.00D-01 BMatC= 8.66D-02 BMatP= 8.07D-01
 IDIUse=3 WtCom= 8.41D-01 WtEn= 1.59D-01
 Coeff-Com:  0.183D+00 0.817D+00
 Coeff-En:   0.000D+00 0.100D+01
 Coeff:      0.154D+00 0.846D+00
 Gap=     0.549 Goal=   None    Shift=    0.000
 RMSDP=1.63D-03 MaxDP=3.04D-02 DE=-5.41D-01 OVMax= 4.61D-02

 Cycle   3  Pass 1  IDiag  1:
 E= -389.151434000127     Delta-E=       -0.077557464074 Rises=F Damp=F
 DIIS: error= 3.43D-03 at cycle   3 NSaved=   3.
 NSaved= 3 IEnMin= 3 EnMin= -389.151434000127     IErMin= 3 ErrMin= 3.43D-03
 ErrMax= 3.43D-03  0.00D+00 EMaxC= 1.00D-01 BMatC= 3.14D-03 BMatP= 8.66D-02
 IDIUse=3 WtCom= 9.66D-01 WtEn= 3.43D-02
 Coeff-Com: -0.245D-01 0.106D+00 0.919D+00
 Coeff-En:   0.000D+00 0.000D+00 0.100D+01
 Coeff:     -0.236D-01 0.102D+00 0.921D+00
 Gap=     0.499 Goal=   None    Shift=    0.000
 RMSDP=2.59D-04 MaxDP=7.14D-03 DE=-7.76D-02 OVMax= 1.01D-02

 Cycle   4  Pass 1  IDiag  1:
 E= -389.155059336148     Delta-E=       -0.003625336021 Rises=F Damp=F
 DIIS: error= 5.31D-04 at cycle   4 NSaved=   4.
 NSaved= 4 IEnMin= 4 EnMin= -389.155059336148     IErMin= 4 ErrMin= 5.31D-04
 ErrMax= 5.31D-04  0.00D+00 EMaxC= 1.00D-01 BMatC= 9.29D-05 BMatP= 3.14D-03
 IDIUse=3 WtCom= 9.95D-01 WtEn= 5.31D-03
 Coeff-Com: -0.424D-02-0.189D-02 0.950D-01 0.911D+00
 Coeff-En:   0.000D+00 0.000D+00 0.000D+00 0.100D+01
 Coeff:     -0.422D-02-0.188D-02 0.945D-01 0.912D+00
 Gap=     0.499 Goal=   None    Shift=    0.000
 RMSDP=7.39D-05 MaxDP=1.49D-03 DE=-3.63D-03 OVMax= 3.14D-03

 Cycle   5  Pass 1  IDiag  1:
 E= -389.155183670975     Delta-E=       -0.000124334827 Rises=F Damp=F
 DIIS: error= 1.63D-04 at cycle   5 NSaved=   5.
 NSaved= 5 IEnMin= 5 EnMin= -389.155183670975     IErMin= 5 ErrMin= 1.63D-04
 ErrMax= 1.63D-04  0.00D+00 EMaxC= 1.00D-01 BMatC= 1.60D-05 BMatP= 9.29D-05
 IDIUse=3 WtCom= 9.98D-01 WtEn= 1.63D-03
 Coeff-Com:  0.241D-02-0.152D-01-0.102D+00 0.176D+00 0.939D+00
 Coeff-En:   0.000D+00 0.000D+00 0.000D+00 0.000D+00 0.100D+01
 Coeff:      0.241D-02-0.152D-01-0.102D+00 0.175D+00 0.939D+00
 Gap=     0.500 Goal=   None    Shift=    0.000
 RMSDP=3.00D-05 MaxDP=6.56D-04 DE=-1.24D-04 OVMax= 9.23D-04

 Cycle   6  Pass 1  IDiag  1:
 E= -389.155205152828     Delta-E=       -0.000021481853 Rises=F Damp=F
 DIIS: error= 3.58D-05 at cycle   6 NSaved=   6.
 NSaved= 6 IEnMin= 6 EnMin= -389.155205152828     IErMin= 6 ErrMin= 3.58D-05
 ErrMax= 3.58D-05  0.00D+00 EMaxC= 1.00D-01 BMatC= 5.50D-07 BMatP= 1.60D-05
 IDIUse=1 WtCom= 1.00D+00 WtEn= 0.00D+00
 Coeff-Com:  0.720D-03-0.335D-02-0.261D-01-0.433D-02 0.177D+00 0.856D+00
 Coeff:      0.720D-03-0.335D-02-0.261D-01-0.433D-02 0.177D+00 0.856D+00
 Gap=     0.500 Goal=   None    Shift=    0.000
 RMSDP=5.30D-06 MaxDP=1.61D-04 DE=-2.15D-05 OVMax= 3.24D-04

 Cycle   7  Pass 1  IDiag  1:
 E= -389.155205994013     Delta-E=       -0.000000841185 Rises=F Damp=F
 DIIS: error= 1.03D-05 at cycle   7 NSaved=   7.
 NSaved= 7 IEnMin= 7 EnMin= -389.155205994013     IErMin= 7 ErrMin= 1.03D-05
 ErrMax= 1.03D-05  0.00D+00 EMaxC= 1.00D-01 BMatC= 5.44D-08 BMatP= 5.50D-07
 IDIUse=1 WtCom= 1.00D+00 WtEn= 0.00D+00
 Coeff-Com: -0.494D-04 0.463D-03 0.301D-02-0.105D-01-0.468D-01 0.145D+00
 Coeff-Com:  0.909D+00
 Coeff:     -0.494D-04 0.463D-03 0.301D-02-0.105D-01-0.468D-01 0.145D+00
 Coeff:      0.909D+00
 Gap=     0.500 Goal=   None    Shift=    0.000
 RMSDP=1.71D-06 MaxDP=4.10D-05 DE=-8.41D-07 OVMax= 8.42D-05

 Cycle   8  Pass 1  IDiag  1:
 E= -389.155206082968     Delta-E=       -0.000000088955 Rises=F Damp=F
 DIIS: error= 3.51D-06 at cycle   8 NSaved=   8.
 NSaved= 8 IEnMin= 8 EnMin= -389.155206082968     IErMin= 8 ErrMin= 3.51D-06
 ErrMax= 3.51D-06  0.00D+00 EMaxC= 1.00D-01 BMatC= 5.10D-09 BMatP= 5.44D-08
 IDIUse=1 WtCom= 1.00D+00 WtEn= 0.00D+00
 Coeff-Com: -0.581D-04 0.249D-03 0.208D-02 0.315D-02-0.171D-01-0.803D-01
 Coeff-Com: -0.123D+00 0.121D+01
 Coeff:     -0.581D-04 0.249D-03 0.208D-02 0.315D-02-0.171D-01-0.803D-01
 Coeff:     -0.123D+00 0.121D+01
 Gap=     0.500 Goal=   None    Shift=    0.000
 RMSDP=7.85D-07 MaxDP=2.40D-05 DE=-8.90D-08 OVMax= 5.81D-05

 Cycle   9  Pass 1  IDiag  1:
 E= -389.155206098838     Delta-E=       -0.000000015870 Rises=F Damp=F
 DIIS: error= 1.46D-06 at cycle   9 NSaved=   9.
 NSaved= 9 IEnMin= 9 EnMin= -389.155206098838     IErMin= 9 ErrMin= 1.46D-06
 ErrMax= 1.46D-06  0.00D+00 EMaxC= 1.00D-01 BMatC= 7.38D-10 BMatP= 5.10D-09
 IDIUse=1 WtCom= 1.00D+00 WtEn= 0.00D+00
 Coeff-Com:  0.926D-05-0.689D-04-0.479D-03 0.144D-02 0.385D-02 0.596D-04
 Coeff-Com: -0.865D-01-0.120D+00 0.120D+01
 Coeff:      0.926D-05-0.689D-04-0.479D-03 0.144D-02 0.385D-02 0.596D-04
 Coeff:     -0.865D-01-0.120D+00 0.120D+01
 Gap=     0.500 Goal=   None    Shift=    0.000
 RMSDP=2.99D-07 MaxDP=1.24D-05 DE=-1.59D-08 OVMax= 2.71D-05

 Cycle  10  Pass 1  IDiag  1:
 E= -389.155206101255     Delta-E=       -0.000000002417 Rises=F Damp=F
 DIIS: error= 3.97D-07 at cycle  10 NSaved=  10.
 NSaved=10 IEnMin=10 EnMin= -389.155206101255     IErMin=10 ErrMin= 3.97D-07
 ErrMax= 3.97D-07  0.00D+00 EMaxC= 1.00D-01 BMatC= 1.22D-10 BMatP= 7.38D-10
 IDIUse=1 WtCom= 1.00D+00 WtEn= 0.00D+00
 Coeff-Com:  0.953D-05-0.465D-04-0.370D-03-0.134D-03 0.234D-02 0.142D-01
 Coeff-Com:  0.591D-02-0.211D+00 0.144D+00 0.105D+01
 Coeff:      0.953D-05-0.465D-04-0.370D-03-0.134D-03 0.234D-02 0.142D-01
 Coeff:      0.591D-02-0.211D+00 0.144D+00 0.105D+01
 Gap=     0.500 Goal=   None    Shift=    0.000
 RMSDP=1.24D-07 MaxDP=3.06D-06 DE=-2.42D-09 OVMax= 9.88D-06

 Cycle  11  Pass 1  IDiag  1:
 E= -389.155206101566     Delta-E=       -0.000000000311 Rises=F Damp=F
 DIIS: error= 1.55D-07 at cycle  11 NSaved=  11.
 NSaved=11 IEnMin=11 EnMin= -389.155206101566     IErMin=11 ErrMin= 1.55D-07
 ErrMax= 1.55D-07  0.00D+00 EMaxC= 1.00D-01 BMatC= 9.55D-12 BMatP= 1.22D-10
 IDIUse=1 WtCom= 1.00D+00 WtEn= 0.00D+00
 Coeff-Com:  0.397D-06 0.826D-06 0.904D-06-0.149D-03-0.305D-03 0.278D-02
 Coeff-Com:  0.110D-01-0.153D-01-0.107D+00 0.164D+00 0.945D+00
 Coeff:      0.397D-06 0.826D-06 0.904D-06-0.149D-03-0.305D-03 0.278D-02
 Coeff:      0.110D-01-0.153D-01-0.107D+00 0.164D+00 0.945D+00
 Gap=     0.500 Goal=   None    Shift=    0.000
 RMSDP=2.77D-08 MaxDP=1.16D-06 DE=-3.11D-10 OVMax= 2.51D-06

 Cycle  12  Pass 1  IDiag  1:
 E= -389.155206101592     Delta-E=       -0.000000000026 Rises=F Damp=F
 DIIS: error= 3.64D-08 at cycle  12 NSaved=  12.
 NSaved=12 IEnMin=12 EnMin= -389.155206101592     IErMin=12 ErrMin= 3.64D-08
 ErrMax= 3.64D-08  0.00D+00 EMaxC= 1.00D-01 BMatC= 1.17D-12 BMatP= 9.55D-12
 IDIUse=1 WtCom= 1.00D+00 WtEn= 0.00D+00
 Coeff-Com: -0.102D-05 0.547D-05 0.429D-04 0.324D-05-0.343D-03-0.126D-02
 Coeff-Com:  0.365D-03 0.217D-01-0.321D-01-0.113D+00 0.978D-01 0.103D+01
 Coeff:     -0.102D-05 0.547D-05 0.429D-04 0.324D-05-0.343D-03-0.126D-02
 Coeff:      0.365D-03 0.217D-01-0.321D-01-0.113D+00 0.978D-01 0.103D+01
 Gap=     0.500 Goal=   None    Shift=    0.000
 RMSDP=1.18D-08 MaxDP=3.33D-07 DE=-2.59D-11 OVMax= 8.47D-07

 Cycle  13  Pass 1  IDiag  1:
 E= -389.155206101592     Delta-E=        0.000000000000 Rises=F Damp=F
 DIIS: error= 1.06D-08 at cycle  13 NSaved=  13.
 NSaved=13 IEnMin=12 EnMin= -389.155206101592     IErMin=13 ErrMin= 1.06D-08
 ErrMax= 1.06D-08  0.00D+00 EMaxC= 1.00D-01 BMatC= 5.47D-14 BMatP= 1.17D-12
 IDIUse=1 WtCom= 1.00D+00 WtEn= 0.00D+00
 Coeff-Com: -0.122D-06 0.462D-06 0.389D-05 0.136D-04-0.170D-04-0.298D-03
 Coeff-Com: -0.849D-03 0.352D-02 0.516D-02-0.212D-01-0.612D-01 0.111D+00
 Coeff-Com:  0.964D+00
 Coeff:     -0.122D-06 0.462D-06 0.389D-05 0.136D-04-0.170D-04-0.298D-03
 Coeff:     -0.849D-03 0.352D-02 0.516D-02-0.212D-01-0.612D-01 0.111D+00
 Coeff:      0.964D+00
 Gap=     0.500 Goal=   None    Shift=    0.000
 RMSDP=2.13D-09 MaxDP=7.04D-08 DE= 2.27D-13 OVMax= 1.05D-07

 SCF Done:  E(RHF) =  -389.155206102     A.U. after   13 cycles
            NFock= 13  Conv=0.21D-08     -V/T= 2.0014
 KE= 3.886260271422D+02 PE=-1.937503365989D+03 EE= 6.432873828192D+02
 Leave Link  502 at Fri Sep 17 15:26:28 2021, MaxMem=   524288000 cpu:              32.0 elap:              32.3
 (Enter /opt/gaussian/g16_legacy/l801.exe)
 ExpMin= 1.61D-01 ExpMax= 3.05D+03 ExpMxC= 4.57D+02 IAcc=3 IRadAn=         5 AccDes= 0.00D+00
 HarFok:  IExCor=  205 AccDes= 0.00D+00 IRadAn=         5 IDoV=-2 UseB2=F ITyADJ=14
 ICtDFT= 12500011 ScaDFX=  1.000000  1.000000  1.000000  1.000000
 Largest valence mixing into a core orbital is  1.98D-04
 Largest core mixing into a valence orbital is  3.52D-05
 Range of M.O.s used for correlation:    11   240
 NBasis=   240 NAE=    39 NBE=    39 NFC=    10 NFV=     0
 NROrb=    230 NOA=    29 NOB=    29 NVA=   201 NVB=   201
 Leave Link  801 at Fri Sep 17 15:26:31 2021, MaxMem=   524288000 cpu:               1.6 elap:               2.5
 (Enter /opt/gaussian/g16_legacy/l906.exe)
 Frozen-core derivative calculation, NFC=  10 NFV=   0.
 FulOut=F Deriv=T AODrv=T NAtomX=    28
   MMem=          88  MDisk=          29 MDiskD=          29
  W3Min=     2246400 MinDsk=     2795480 NBas6D=         240
 NBas2D=       29244    NTT=       28920    LW2=     2040000
    MDV=   523626386 MDiskM=       30186 NBas2p=       24383
 Fully direct method using O(ONN) memory.
 IMap=   1   2   3   4   5   6   7   8   9  10  11  12  13  14  15  16  17  18  19  20
 IMap=  21  22  23  24  25  26  27  28  29  30  31  32  33  34  35  36  37  38  39
 JobTyp=1 Pass  1:  I=  11 to  39 NPSUse=  1 ParTrn=F ParDer=F DoDerP=T.
 Spin components of T(2) and E(2):
     alpha-alpha T2 =       0.5715170317D-01 E2=     -0.1638030177D+00
     alpha-beta  T2 =       0.3618166303D+00 E2=     -0.1089339116D+01
     beta-beta   T2 =       0.5715170317D-01 E2=     -0.1638030177D+00
 The integrals were generated   1 times.
 ANorm=    0.1214956804D+01
 E2 =    -0.1416945152D+01 EUMP2 =    -0.39057215125344D+03
 Leave Link  906 at Fri Sep 17 15:30:35 2021, MaxMem=   524288000 cpu:             243.8 elap:             244.0
 (Enter /opt/gaussian/g16_legacy/l1002.exe)
 Minotr:  Closed shell wavefunction.
          Computing MP2/KS-MP2 derivatives.
          Using Z-Vector for PSCF gradient.
          Skipping F1 and S1 gradient terms here.
          IDoAtm=1111111111111111111111111111
          Frozen-core window.
          Direct CPHF calculation.
          Differentiating once with respect to electric field.
                with respect to dipole field.
          Differentiating once with respect to nuclear coordinates.
          Requested convergence is 1.0D-10 RMS, and 1.0D-09 maximum.
          NewPWx=F KeepS1=T KeepF1=T KeepIn=T MapXYZ=F SortEE=F KeepMc=T.
 Keep R1 ints in memory in canonical form, NReq=425201067.
 FoFCou: FMM=F IPFlag=           0 FMFlag=           0 FMFlg1=           0
         NFxFlg=           0 DoJE=F BraDBF=F KetDBF=F FulRan=T
         wScrn=  0.000000 ICntrl=       600 IOpCl=  0 I1Cent=           0 NGrid=           0
         NMat0=    1 NMatS0=  28920 NMatT0=    0 NMatD0=    1 NMtDS0=    0 NMtDT0=    0
 Symmetry not used in FoFCou.
 Two-electron integral symmetry not used.
          MDV=     524288000 using IRadAn=       5.
          Solving linear equations separately, MaxMat=       0.
          There are     1 degrees of freedom in the 1st order CPHF.  IDoFFX=0 NUNeed=     1.
 LinEq1:  Iter=  0 NonCon=     1 RMS=2.55D-03 Max=3.76D-02 NDo=     1
 AX will form     1 AO Fock derivatives at one time.
 LinEq1:  Iter=  1 NonCon=     1 RMS=6.90D-04 Max=9.74D-03 NDo=     1
 LinEq1:  Iter=  2 NonCon=     1 RMS=1.61D-04 Max=4.14D-03 NDo=     1
 LinEq1:  Iter=  3 NonCon=     1 RMS=4.31D-05 Max=5.07D-04 NDo=     1
 LinEq1:  Iter=  4 NonCon=     1 RMS=1.99D-05 Max=8.55D-04 NDo=     1
 LinEq1:  Iter=  5 NonCon=     1 RMS=5.06D-06 Max=8.27D-05 NDo=     1
 LinEq1:  Iter=  6 NonCon=     1 RMS=1.63D-06 Max=2.69D-05 NDo=     1
 LinEq1:  Iter=  7 NonCon=     1 RMS=4.13D-07 Max=4.19D-06 NDo=     1
 LinEq1:  Iter=  8 NonCon=     1 RMS=1.01D-07 Max=1.86D-06 NDo=     1
 LinEq1:  Iter=  9 NonCon=     1 RMS=2.33D-08 Max=6.32D-07 NDo=     1
 LinEq1:  Iter= 10 NonCon=     1 RMS=6.41D-09 Max=1.63D-07 NDo=     1
 LinEq1:  Iter= 11 NonCon=     1 RMS=1.90D-09 Max=3.62D-08 NDo=     1
 LinEq1:  Iter= 12 NonCon=     1 RMS=4.04D-10 Max=5.86D-09 NDo=     1
 LinEq1:  Iter= 13 NonCon=     1 RMS=1.02D-10 Max=2.31D-09 NDo=     1
 LinEq1:  Iter= 14 NonCon=     0 RMS=2.95D-11 Max=4.14D-10 NDo=     1
 Linear equations converged to 1.000D-10 1.000D-09 after    14 iterations.
 End of Minotr F.D. properties file   721 does not exist.
 End of Minotr F.D. properties file   722 does not exist.
 End of Minotr F.D. properties file   788 does not exist.
 Leave Link 1002 at Fri Sep 17 15:31:16 2021, MaxMem=   524288000 cpu:              40.9 elap:              41.0
 (Enter /opt/gaussian/g16_legacy/l601.exe)
 Copying SCF densities to generalized density rwf, IOpCl= 0 IROHF=0.

 **********************************************************************

            Population analysis using the SCF density.

 **********************************************************************

 Orbital symmetries:
       Occupied  (A) (A) (A) (A) (A) (A) (A) (A) (A) (A) (A) (A)
                 (A) (A) (A) (A) (A) (A) (A) (A) (A) (A) (A) (A)
                 (A) (A) (A) (A) (A) (A) (A) (A) (A) (A) (A) (A)
                 (A) (A) (A)
       Virtual   (A) (A) (A) (A) (A) (A) (A) (A) (A) (A) (A) (A)
                 (A) (A) (A) (A) (A) (A) (A) (A) (A) (A) (A) (A)
                 (A) (A) (A) (A) (A) (A) (A) (A) (A) (A) (A) (A)
                 (A) (A) (A) (A) (A) (A) (A) (A) (A) (A) (A) (A)
                 (A) (A) (A) (A) (A) (A) (A) (A) (A) (A) (A) (A)
                 (A) (A) (A) (A) (A) (A) (A) (A) (A) (A) (A) (A)
                 (A) (A) (A) (A) (A) (A) (A) (A) (A) (A) (A) (A)
                 (A) (A) (A) (A) (A) (A) (A) (A) (A) (A) (A) (A)
                 (A) (A) (A) (A) (A) (A) (A) (A) (A) (A) (A) (A)
                 (A) (A) (A) (A) (A) (A) (A) (A) (A) (A) (A) (A)
                 (A) (A) (A) (A) (A) (A) (A) (A) (A) (A) (A) (A)
                 (A) (A) (A) (A) (A) (A) (A) (A) (A) (A) (A) (A)
                 (A) (A) (A) (A) (A) (A) (A) (A) (A) (A) (A) (A)
                 (A) (A) (A) (A) (A) (A) (A) (A) (A) (A) (A) (A)
                 (A) (A) (A) (A) (A) (A) (A) (A) (A) (A) (A) (A)
                 (A) (A) (A) (A) (A) (A) (A) (A) (A) (A) (A) (A)
                 (A) (A) (A) (A) (A) (A) (A) (A) (A)
 The electronic state is 1-A.
 Alpha  occ. eigenvalues --  -11.23060 -11.22506 -11.22000 -11.21920 -11.21883
 Alpha  occ. eigenvalues --  -11.21650 -11.21554 -11.21484 -11.21456 -11.21438
 Alpha  occ. eigenvalues --   -1.10623  -1.08326  -1.01911  -0.98013  -0.93647
 Alpha  occ. eigenvalues --   -0.91776  -0.86754  -0.82685  -0.70599  -0.69343
 Alpha  occ. eigenvalues --   -0.64585  -0.61545  -0.60101  -0.59030  -0.58088
 Alpha  occ. eigenvalues --   -0.56803  -0.55367  -0.55149  -0.53549  -0.51983
 Alpha  occ. eigenvalues --   -0.51717  -0.51321  -0.50593  -0.49228  -0.48275
 Alpha  occ. eigenvalues --   -0.46013  -0.44273  -0.33355  -0.31524
 Alpha virt. eigenvalues --    0.18456   0.19493   0.22038   0.24453   0.25183
 Alpha virt. eigenvalues --    0.27141   0.28395   0.28931   0.30250   0.30504
 Alpha virt. eigenvalues --    0.31238   0.32117   0.33135   0.33436   0.34031
 Alpha virt. eigenvalues --    0.35677   0.35774   0.36970   0.38998   0.40648
 Alpha virt. eigenvalues --    0.41063   0.42594   0.43321   0.44192   0.45150
 Alpha virt. eigenvalues --    0.51684   0.54046   0.61171   0.62444   0.70138
 Alpha virt. eigenvalues --    0.71101   0.71886   0.74279   0.76416   0.76614
 Alpha virt. eigenvalues --    0.76876   0.78796   0.79455   0.81139   0.82036
 Alpha virt. eigenvalues --    0.83811   0.85655   0.88080   0.91265   0.92027
 Alpha virt. eigenvalues --    0.92895   0.95178   0.97057   0.98262   0.99205
 Alpha virt. eigenvalues --    0.99752   1.00201   1.02301   1.03925   1.06181
 Alpha virt. eigenvalues --    1.07863   1.08640   1.08809   1.11199   1.12390
 Alpha virt. eigenvalues --    1.12560   1.13432   1.14584   1.14926   1.15819
 Alpha virt. eigenvalues --    1.16164   1.16403   1.18223   1.18705   1.20093
 Alpha virt. eigenvalues --    1.20663   1.22067   1.22854   1.25018   1.27541
 Alpha virt. eigenvalues --    1.34172   1.40671   1.41849   1.43741   1.45171
 Alpha virt. eigenvalues --    1.47557   1.53478   1.56254   1.56978   1.58247
 Alpha virt. eigenvalues --    1.59849   1.62718   1.65796   1.69518   1.70791
 Alpha virt. eigenvalues --    1.75328   1.82525   1.92032   1.92195   1.95498
 Alpha virt. eigenvalues --    1.98630   2.01126   2.02849   2.04182   2.08704
 Alpha virt. eigenvalues --    2.09245   2.11122   2.11380   2.13103   2.14504
 Alpha virt. eigenvalues --    2.15425   2.17689   2.19726   2.23579   2.27383
 Alpha virt. eigenvalues --    2.28339   2.29993   2.32201   2.34975   2.35567
 Alpha virt. eigenvalues --    2.35646   2.35784   2.39324   2.39849   2.40349
 Alpha virt. eigenvalues --    2.41283   2.41826   2.43041   2.45163   2.45385
 Alpha virt. eigenvalues --    2.47035   2.48344   2.49335   2.50337   2.54526
 Alpha virt. eigenvalues --    2.56586   2.57722   2.61276   2.62187   2.64352
 Alpha virt. eigenvalues --    2.66343   2.67161   2.72032   2.72994   2.73748
 Alpha virt. eigenvalues --    2.75718   2.77700   2.81090   2.82802   2.85160
 Alpha virt. eigenvalues --    2.87730   2.89153   2.91917   2.93441   2.94435
 Alpha virt. eigenvalues --    2.97094   2.99036   3.01167   3.02601   3.05101
 Alpha virt. eigenvalues --    3.05826   3.06633   3.08507   3.13019   3.15943
 Alpha virt. eigenvalues --    3.17139   3.18165   3.19617   3.20684   3.21267
 Alpha virt. eigenvalues --    3.23191   3.24413   3.26466   3.27243   3.36665
 Alpha virt. eigenvalues --    3.39073   3.44605   3.45617   3.55555   3.57298
 Alpha virt. eigenvalues --    3.58702   3.61057   3.66893   3.73955   3.78200
 Alpha virt. eigenvalues --    3.78871   3.80512   3.81329   3.82332   3.82837
 Alpha virt. eigenvalues --    3.84217   3.85754   3.87658   3.89511   3.91172
 Alpha virt. eigenvalues --    3.95901   4.59095   4.62632   4.74430   4.82815
 Alpha virt. eigenvalues --    4.88836   4.92669   4.93352   5.07550   5.10286
 Alpha virt. eigenvalues --    5.16869
          Condensed to atoms (all electrons):
               1          2          3          4          5          6
     1  C    5.001754   0.412360   0.413518   0.340288  -0.058739   0.003675
     2  H    0.412360   0.571659  -0.030236  -0.040522   0.003237  -0.000103
     3  H    0.413518  -0.030236   0.588509  -0.045065  -0.004692   0.000081
     4  C    0.340288  -0.040522  -0.045065   4.955143   0.349341  -0.041402
     5  C   -0.058739   0.003237  -0.004692   0.349341   4.896432   0.406180
     6  H    0.003675  -0.000103   0.000081  -0.041402   0.406180   0.571018
     7  H   -0.000529  -0.000030  -0.000276  -0.045813   0.400282  -0.028073
     8  H   -0.003552  -0.000016   0.002572  -0.043074   0.397378  -0.027609
     9  C   -0.044048  -0.002233   0.001919   0.698810  -0.045932  -0.002739
    10  H    0.003079   0.000060  -0.000114  -0.036527  -0.006481   0.002221
    11  C   -0.007060  -0.002133   0.000138  -0.050690   0.003424   0.000137
    12  H    0.000232  -0.000034  -0.000010   0.000594  -0.000100  -0.000009
    13  H    0.000227   0.000172   0.000028  -0.001412  -0.000116  -0.000004
    14  H   -0.001827  -0.001332   0.000004  -0.000421   0.000092   0.000004
    15  C    0.000597   0.000160  -0.000016  -0.000017  -0.000000  -0.000000
    16  H    0.000077  -0.000076  -0.000001  -0.000002   0.000000  -0.000000
    17  H   -0.000041   0.000014   0.000000   0.000001  -0.000000   0.000000
    18  H   -0.000053  -0.000052  -0.000012  -0.000027  -0.000000   0.000000
    19  C   -0.003608   0.001047   0.000615   0.000006  -0.000002   0.000000
    20  C   -0.000101  -0.000042  -0.000000   0.000002  -0.000000   0.000000
    21  H   -0.000003  -0.000002   0.000002   0.000000  -0.000000   0.000000
    22  H    0.000022  -0.000005  -0.000001  -0.000000   0.000000  -0.000000
    23  H   -0.000004   0.000001   0.000000   0.000000  -0.000000   0.000000
    24  C   -0.063057  -0.000806  -0.000608   0.006131  -0.000158   0.000003
    25  H    0.000005   0.000213   0.001004  -0.000155   0.000010  -0.000000
    26  C    0.326230  -0.039859  -0.044604  -0.057371  -0.000188  -0.000097
    27  H   -0.045131   0.004291  -0.002605  -0.001851  -0.000392  -0.000025
    28  H   -0.040289  -0.002145   0.004203  -0.001438   0.000317  -0.000010
               7          8          9         10         11         12
     1  C   -0.000529  -0.003552  -0.044048   0.003079  -0.007060   0.000232
     2  H   -0.000030  -0.000016  -0.002233   0.000060  -0.002133  -0.000034
     3  H   -0.000276   0.002572   0.001919  -0.000114   0.000138  -0.000010
     4  C   -0.045813  -0.043074   0.698810  -0.036527  -0.050690   0.000594
     5  C    0.400282   0.397378  -0.045932  -0.006481   0.003424  -0.000100
     6  H   -0.028073  -0.027609  -0.002739   0.002221   0.000137  -0.000009
     7  H    0.594766  -0.035016  -0.001034   0.000123  -0.000100   0.000015
     8  H   -0.035016   0.593636  -0.000425   0.000248  -0.000114  -0.000004
     9  C   -0.001034  -0.000425   4.939990   0.404873   0.337727  -0.042847
    10  H    0.000123   0.000248   0.404873   0.559343  -0.043633  -0.002646
    11  C   -0.000100  -0.000114   0.337727  -0.043633   4.906195   0.403010
    12  H    0.000015  -0.000004  -0.042847  -0.002646   0.403010   0.586792
    13  H   -0.000005   0.000021  -0.044356  -0.000222   0.400027  -0.033277
    14  H    0.000000  -0.000001  -0.041932   0.003315   0.408026  -0.030016
    15  C   -0.000000  -0.000000   0.000010  -0.000000  -0.000097  -0.000004
    16  H    0.000000  -0.000000   0.000000  -0.000000  -0.000003   0.000000
    17  H    0.000000   0.000000   0.000000   0.000000   0.000002  -0.000000
    18  H    0.000000  -0.000000  -0.000032   0.000000   0.000040   0.000042
    19  C    0.000000   0.000000   0.000001   0.000000   0.000007   0.000000
    20  C   -0.000000  -0.000000  -0.000000   0.000000  -0.000000  -0.000000
    21  H   -0.000000  -0.000000  -0.000000   0.000000   0.000000  -0.000000
    22  H    0.000000  -0.000000  -0.000000  -0.000000   0.000000   0.000000
    23  H    0.000000   0.000000   0.000000   0.000000  -0.000000  -0.000000
    24  C   -0.000086   0.000001   0.000070   0.000002  -0.000032  -0.000004
    25  H    0.000012  -0.000002  -0.000002  -0.000000   0.000000   0.000000
    26  C    0.000811   0.000027  -0.004367  -0.000116   0.000690   0.000091
    27  H   -0.000187   0.000093   0.000514   0.000004  -0.000030   0.000000
    28  H   -0.000009   0.000012   0.001215  -0.000044   0.000070  -0.000079
              13         14         15         16         17         18
     1  C    0.000227  -0.001827   0.000597   0.000077  -0.000041  -0.000053
     2  H    0.000172  -0.001332   0.000160  -0.000076   0.000014  -0.000052
     3  H    0.000028   0.000004  -0.000016  -0.000001   0.000000  -0.000012
     4  C   -0.001412  -0.000421  -0.000017  -0.000002   0.000001  -0.000027
     5  C   -0.000116   0.000092  -0.000000   0.000000  -0.000000  -0.000000
     6  H   -0.000004   0.000004  -0.000000  -0.000000   0.000000   0.000000
     7  H   -0.000005   0.000000  -0.000000   0.000000   0.000000   0.000000
     8  H    0.000021  -0.000001  -0.000000  -0.000000   0.000000  -0.000000
     9  C   -0.044356  -0.041932   0.000010   0.000000   0.000000  -0.000032
    10  H   -0.000222   0.003315  -0.000000  -0.000000   0.000000   0.000000
    11  C    0.400027   0.408026  -0.000097  -0.000003   0.000002   0.000040
    12  H   -0.033277  -0.030016  -0.000004   0.000000  -0.000000   0.000042
    13  H    0.584264  -0.026861   0.000002  -0.000000   0.000000  -0.000008
    14  H   -0.026861   0.573882   0.000010   0.000034  -0.000006   0.000570
    15  C    0.000002   0.000010   4.909206   0.402443   0.398273   0.406153
    16  H   -0.000000   0.000034   0.402443   0.586184  -0.033091  -0.030014
    17  H    0.000000  -0.000006   0.398273  -0.033091   0.582517  -0.026277
    18  H   -0.000008   0.000570   0.406153  -0.030014  -0.026277   0.568181
    19  C   -0.000000  -0.000013   0.348395  -0.043926  -0.043825  -0.037062
    20  C    0.000000   0.000000  -0.065367  -0.003429  -0.001684   0.003678
    21  H   -0.000000  -0.000000   0.003694   0.000010  -0.000079  -0.000108
    22  H   -0.000000  -0.000000  -0.002139   0.002847  -0.000371  -0.000072
    23  H    0.000000  -0.000000  -0.001104  -0.000507   0.002553  -0.000023
    24  C    0.000002   0.000003  -0.043321   0.000449  -0.000843  -0.002871
    25  H    0.000000  -0.000001   0.003365  -0.000110  -0.000126   0.000059
    26  C   -0.000050  -0.000212  -0.007533   0.000286   0.000188  -0.001944
    27  H   -0.000000  -0.000008   0.000169  -0.000012   0.000032   0.000031
    28  H    0.000023  -0.000251  -0.002066  -0.000043   0.000056  -0.001169
              19         20         21         22         23         24
     1  C   -0.003608  -0.000101  -0.000003   0.000022  -0.000004  -0.063057
     2  H    0.001047  -0.000042  -0.000002  -0.000005   0.000001  -0.000806
     3  H    0.000615  -0.000000   0.000002  -0.000001   0.000000  -0.000608
     4  C    0.000006   0.000002   0.000000  -0.000000   0.000000   0.006131
     5  C   -0.000002  -0.000000  -0.000000   0.000000  -0.000000  -0.000158
     6  H    0.000000   0.000000   0.000000  -0.000000   0.000000   0.000003
     7  H    0.000000  -0.000000  -0.000000   0.000000   0.000000  -0.000086
     8  H    0.000000  -0.000000  -0.000000  -0.000000   0.000000   0.000001
     9  C    0.000001  -0.000000  -0.000000  -0.000000   0.000000   0.000070
    10  H    0.000000   0.000000   0.000000  -0.000000   0.000000   0.000002
    11  C    0.000007  -0.000000   0.000000   0.000000  -0.000000  -0.000032
    12  H    0.000000  -0.000000  -0.000000   0.000000  -0.000000  -0.000004
    13  H   -0.000000   0.000000  -0.000000  -0.000000   0.000000   0.000002
    14  H   -0.000013   0.000000  -0.000000  -0.000000  -0.000000   0.000003
    15  C    0.348395  -0.065367   0.003694  -0.002139  -0.001104  -0.043321
    16  H   -0.043926  -0.003429   0.000010   0.002847  -0.000507   0.000449
    17  H   -0.043825  -0.001684  -0.000079  -0.000371   0.002553  -0.000843
    18  H   -0.037062   0.003678  -0.000108  -0.000072  -0.000023  -0.002871
    19  C    4.918238   0.352282  -0.040386  -0.044308  -0.045766   0.698170
    20  C    0.352282   4.903228   0.405431   0.396987   0.399262  -0.044866
    21  H   -0.040386   0.405431   0.568001  -0.027365  -0.027564  -0.002385
    22  H   -0.044308   0.396987  -0.027365   0.594314  -0.034902  -0.000547
    23  H   -0.045766   0.399262  -0.027564  -0.034902   0.593081  -0.001136
    24  C    0.698170  -0.044866  -0.002385  -0.000547  -0.001136   4.961517
    25  H   -0.036140  -0.006750   0.002176   0.000235   0.000150   0.402015
    26  C   -0.048267   0.003153   0.000146  -0.000086  -0.000124   0.339922
    27  H    0.000915  -0.000102  -0.000011  -0.000002   0.000012  -0.043345
    28  H    0.000823   0.000070   0.000006  -0.000004   0.000004  -0.043815
              25         26         27         28
     1  C    0.000005   0.326230  -0.045131  -0.040289
     2  H    0.000213  -0.039859   0.004291  -0.002145
     3  H    0.001004  -0.044604  -0.002605   0.004203
     4  C   -0.000155  -0.057371  -0.001851  -0.001438
     5  C    0.000010  -0.000188  -0.000392   0.000317
     6  H   -0.000000  -0.000097  -0.000025  -0.000010
     7  H    0.000012   0.000811  -0.000187  -0.000009
     8  H   -0.000002   0.000027   0.000093   0.000012
     9  C   -0.000002  -0.004367   0.000514   0.001215
    10  H   -0.000000  -0.000116   0.000004  -0.000044
    11  C    0.000000   0.000690  -0.000030   0.000070
    12  H    0.000000   0.000091   0.000000  -0.000079
    13  H    0.000000  -0.000050  -0.000000   0.000023
    14  H   -0.000001  -0.000212  -0.000008  -0.000251
    15  C    0.003365  -0.007533   0.000169  -0.002066
    16  H   -0.000110   0.000286  -0.000012  -0.000043
    17  H   -0.000126   0.000188   0.000032   0.000056
    18  H    0.000059  -0.001944   0.000031  -0.001169
    19  C   -0.036140  -0.048267   0.000915   0.000823
    20  C   -0.006750   0.003153  -0.000102   0.000070
    21  H    0.002176   0.000146  -0.000011   0.000006
    22  H    0.000235  -0.000086  -0.000002  -0.000004
    23  H    0.000150  -0.000124   0.000012   0.000004
    24  C    0.402015   0.339922  -0.043345  -0.043815
    25  H    0.558523  -0.041274  -0.003486   0.003231
    26  C   -0.041274   4.982349   0.413771   0.414871
    27  H   -0.003486   0.413771   0.588507  -0.029610
    28  H    0.003231   0.414871  -0.029610   0.571253
 Mulliken charges:
               1
     1  C   -0.234019
     2  H    0.126413
     3  H    0.115650
     4  C    0.015472
     5  C   -0.339892
     6  H    0.116752
     7  H    0.115150
     8  H    0.115826
     9  C   -0.155182
    10  H    0.116513
    11  C   -0.355601
    12  H    0.118253
    13  H    0.121544
    14  H    0.116941
    15  C   -0.350812
    16  H    0.118885
    17  H    0.122707
    18  H    0.120968
    19  C    0.022805
    20  C   -0.341750
    21  H    0.118436
    22  H    0.115398
    23  H    0.116067
    24  C   -0.160405
    25  H    0.117049
    26  C   -0.236443
    27  H    0.118459
    28  H    0.124817
 Sum of Mulliken charges =  -0.00000
 Mulliken charges with hydrogens summed into heavy atoms:
               1
     1  C    0.008044
     4  C    0.015472
     5  C    0.007835
     9  C   -0.038668
    11  C    0.001137
    15  C    0.011748
    19  C    0.022805
    20  C    0.008151
    24  C   -0.043356
    26  C    0.006833
 Electronic spatial extent (au):  <R**2>=           2423.6564
 Charge=             -0.0000 electrons
 Dipole moment (field-independent basis, Debye):
    X=              0.2950    Y=              0.1262    Z=             -0.0059  Tot=              0.3209
 Quadrupole moment (field-independent basis, Debye-Ang):
   XX=            -64.5125   YY=            -63.6032   ZZ=            -67.0539
   XY=              0.6110   XZ=              0.8627   YZ=             -0.4856
 Traceless Quadrupole moment (field-independent basis, Debye-Ang):
   XX=              0.5440   YY=              1.4533   ZZ=             -1.9974
   XY=              0.6110   XZ=              0.8627   YZ=             -0.4856
 Octapole moment (field-independent basis, Debye-Ang**2):
  XXX=              1.3639  YYY=             -2.7190  ZZZ=              0.1850  XYY=             -0.5683
  XXY=              4.5336  XXZ=             -2.6547  XZZ=              1.5767  YZZ=              1.2282
  YYZ=              1.3707  XYZ=             -0.7519
 Hexadecapole moment (field-independent basis, Debye-Ang**3):
 XXXX=          -2492.2960 YYYY=           -696.1192 ZZZZ=           -174.8234 XXXY=             -2.3452
 XXXZ=             11.9363 YYYX=             -9.3554 YYYZ=             -3.0519 ZZZX=             -0.8384
 ZZZY=             -0.0658 XXYY=           -530.4660 XXZZ=           -456.3169 YYZZ=           -139.1729
 XXYZ=             -4.2454 YYXZ=              3.1993 ZZXY=              4.6998
 N-N= 5.164347499259D+02 E-N=-1.937503366102D+03  KE= 3.886260271422D+02
 No NMR shielding tensors so no spin-rotation constants.
 Leave Link  601 at Fri Sep 17 15:31:16 2021, MaxMem=   524288000 cpu:               0.4 elap:               0.6
 (Enter /opt/gaussian/g16_legacy/l701.exe)
 ... and contract with generalized density number  2.
 Compute integral first derivatives.
 Leave Link  701 at Fri Sep 17 15:31:17 2021, MaxMem=   524288000 cpu:               0.3 elap:               0.3
 (Enter /opt/gaussian/g16_legacy/l702.exe)
 L702 exits ... SP integral derivatives will be done elsewhere.
 Leave Link  702 at Fri Sep 17 15:31:17 2021, MaxMem=   524288000 cpu:               0.1 elap:               0.1
 (Enter /opt/gaussian/g16_legacy/l703.exe)
 Integral derivatives from FoFJK, PRISM(SPDF).
 Compute integral first derivatives, UseDBF=F ICtDFT=           0.
 Calling FoFJK, ICntrl=  10002127 FMM=F ISym2X=0 I1Cent= 0 IOpClX= 0 NMat=1 NMatS=1 NMatT=0.
 FoFJK:  IHMeth= 1 ICntrl=10002127 DoSepK=F KAlg= 0 I1Cent=           0 FoldK=F
 IRaf=         0 NMat=       1 IRICut=       1 DoRegI=T DoRafI=F ISym2E= 0 IDoP0=0 IntGTp=1.
 FoFCou: FMM=F IPFlag=           0 FMFlag=      100000 FMFlg1=         800
         NFxFlg=           0 DoJE=F BraDBF=F KetDBF=F FulRan=T
         wScrn=  0.000000 ICntrl=  10002127 IOpCl=  0 I1Cent=           0 NGrid=           0
         NMat0=    1 NMatS0=      1 NMatT0=    0 NMatD0=    1 NMtDS0=    0 NMtDT0=    0
 Symmetry not used in FoFCou.
 Leave Link  703 at Fri Sep 17 15:31:52 2021, MaxMem=   524288000 cpu:              35.3 elap:              35.3
 (Enter /opt/gaussian/g16_legacy/l716.exe)
 Dipole        = 9.11634589D-02 6.69300959D-02-4.75950887D-03
 ***** Axes restored to original set *****
 -------------------------------------------------------------------
 Center     Atomic                   Forces (Hartrees/Bohr)
 Number     Number              X              Y              Z
 -------------------------------------------------------------------
      1        6          -0.008081512    0.000296016   -0.004936687
      2        1           0.000852241   -0.003188495    0.003272222
      3        1           0.000233418   -0.003525596    0.001411332
      4        6          -0.004263355    0.004820959   -0.000760987
      5        6          -0.002850356   -0.001257839    0.000530597
      6        1           0.003655483   -0.000230440   -0.001827296
      7        1          -0.000584668    0.003296067   -0.000414761
      8        1           0.001497795   -0.002223598    0.002034944
      9        6           0.002330731   -0.001008369    0.002882988
     10        1           0.002583020    0.001624463    0.001849944
     11        6           0.001635195   -0.000999207   -0.001874736
     12        1          -0.000113470    0.002650726   -0.002183436
     13        1           0.001420228   -0.003061498   -0.000663032
     14        1          -0.002746684    0.001372035    0.001280124
     15        6          -0.004317478   -0.001487188    0.000086097
     16        1           0.001788274   -0.001659364    0.002735293
     17        1          -0.000336345    0.001249530   -0.002867950
     18        1           0.002675693    0.001133979    0.001854337
     19        6          -0.000378774    0.005222546    0.001059076
     20        6           0.000178913    0.002831646    0.001767462
     21        1          -0.002449118   -0.003110667   -0.001731440
     22        1           0.001949169   -0.002514951    0.001536290
     23        1          -0.000308220    0.001763318   -0.002842573
     24        6          -0.001051748   -0.003216580    0.004015166
     25        1           0.001529652   -0.001239294   -0.002804670
     26        6           0.007639300   -0.002133896    0.000939256
     27        1          -0.001964527    0.000986705   -0.002610469
     28        1          -0.000522855    0.003608992   -0.001737092
 -------------------------------------------------------------------
 Cartesian Forces:  Max     0.008081512 RMS     0.002572705
 Leave Link  716 at Fri Sep 17 15:31:52 2021, MaxMem=   524288000 cpu:               0.1 elap:               0.1
 (Enter /opt/gaussian/g16_legacy/l103.exe)

 GradGradGradGradGradGradGradGradGradGradGradGradGradGradGradGradGradGrad
 Berny optimization.
 FormGI is forming the generalized inverse of G from B-inverse, IUseBI=4.
 Internal  Forces:  Max     0.004883526 RMS     0.001917467
 Search for a local minimum.
 Step number   1 out of a maximum of  138
 All quantities printed in internal units (Hartrees-Bohrs-Radians)
 RMS Force = .19175D-02 SwitMx=.10000D-02 MixMth= 1
 Mixed Optimization -- RFO/linear search
 Second derivative matrix not updated -- first step.
 ITU=  0
     Eigenvalues ---    0.00344   0.00571   0.00670   0.00679   0.00692
     Eigenvalues ---    0.00714   0.00818   0.01219   0.01286   0.01569
     Eigenvalues ---    0.01641   0.02778   0.02785   0.04018   0.04138
     Eigenvalues ---    0.05350   0.05399   0.06979   0.07035   0.07090
     Eigenvalues ---    0.07092   0.07269   0.07301   0.07347   0.07505
     Eigenvalues ---    0.09278   0.09362   0.12767   0.12843   0.15999
     Eigenvalues ---    0.15999   0.16000   0.16000   0.16000   0.16000
     Eigenvalues ---    0.16000   0.16000   0.16000   0.16000   0.16000
     Eigenvalues ---    0.16000   0.16000   0.16000   0.21858   0.21866
     Eigenvalues ---    0.22000   0.22000   0.24994   0.24997   0.24998
     Eigenvalues ---    0.24999   0.29246   0.30876   0.31630   0.31701
     Eigenvalues ---    0.31798   0.31970   0.32792   0.33867   0.33969
     Eigenvalues ---    0.34072   0.34196   0.34224   0.34235   0.34246
     Eigenvalues ---    0.34247   0.34247   0.34254   0.34266   0.34266
     Eigenvalues ---    0.34297   0.34333   0.34550   0.34562   0.34796
     Eigenvalues ---    0.34849   0.55475   0.55580
 RFO step:  Lambda=-2.95919500D-03 EMin= 3.43548049D-03
 Linear search not attempted -- first point.
 Iteration  1 RMS(Cart)=  0.03971151 RMS(Int)=  0.00072338
 Iteration  2 RMS(Cart)=  0.00093428 RMS(Int)=  0.00016602
 Iteration  3 RMS(Cart)=  0.00000043 RMS(Int)=  0.00016602
 ITry= 1 IFail=0 DXMaxC= 1.81D-01 DCOld= 1.00D+10 DXMaxT= 3.00D-01 DXLimC= 3.00D+00 Rises=F
 Variable       Old X    -DE/DX   Delta X   Delta X   Delta X     New X
                                 (Linear)    (Quad)   (Total)
    R1        2.07209  -0.00326   0.00000  -0.00949  -0.00949   2.06260
    R2        2.07555  -0.00277   0.00000  -0.00812  -0.00812   2.06743
    R3        2.86251  -0.00351   0.00000  -0.01125  -0.01125   2.85125
    R4        2.89493   0.00176   0.00000   0.00595   0.00595   2.90088
    R5        2.84827  -0.00047   0.00000  -0.00147  -0.00147   2.84680
    R6        2.54713  -0.00407   0.00000  -0.00730  -0.00730   2.53982
    R7        2.06953  -0.00370   0.00000  -0.01071  -0.01071   2.05882
    R8        2.06832  -0.00179   0.00000  -0.00517  -0.00517   2.06315
    R9        2.06904  -0.00214   0.00000  -0.00618  -0.00618   2.06286
   R10        2.05920  -0.00221   0.00000  -0.00629  -0.00629   2.05291
   R11        2.82718   0.00308   0.00000   0.00932   0.00932   2.83650
   R12        2.06883  -0.00256   0.00000  -0.00742  -0.00742   2.06141
   R13        2.06771  -0.00158   0.00000  -0.00458  -0.00458   2.06313
   R14        2.06392  -0.00286   0.00000  -0.00820  -0.00820   2.05572
   R15        2.07001  -0.00263   0.00000  -0.00764  -0.00764   2.06237
   R16        2.06884  -0.00186   0.00000  -0.00539  -0.00539   2.06345
   R17        2.06411  -0.00282   0.00000  -0.00809  -0.00809   2.05602
   R18        2.84199  -0.00049   0.00000  -0.00152  -0.00152   2.84047
   R19        2.84695  -0.00080   0.00000  -0.00251  -0.00251   2.84444
   R20        2.54620  -0.00322   0.00000  -0.00577  -0.00577   2.54043
   R21        2.06935  -0.00392   0.00000  -0.01137  -0.01137   2.05799
   R22        2.06915  -0.00200   0.00000  -0.00579  -0.00579   2.06336
   R23        2.06915  -0.00200   0.00000  -0.00578  -0.00578   2.06336
   R24        2.06007  -0.00198   0.00000  -0.00565  -0.00565   2.05441
   R25        2.84515  -0.00153   0.00000  -0.00476  -0.00476   2.84039
   R26        2.07382  -0.00239   0.00000  -0.00699  -0.00699   2.06684
   R27        2.06917  -0.00277   0.00000  -0.00803  -0.00803   2.06114
    A1        1.82987   0.00207   0.00000   0.02250   0.02234   1.85221
    A2        1.93022   0.00042   0.00000   0.00918   0.00922   1.93944
    A3        1.91836  -0.00277   0.00000  -0.02021  -0.02024   1.89812
    A4        1.90260  -0.00069   0.00000  -0.00267  -0.00267   1.89993
    A5        1.92005  -0.00195   0.00000  -0.01724  -0.01727   1.90278
    A6        1.95839   0.00283   0.00000   0.00911   0.00915   1.96754
    A7        2.00840   0.00236   0.00000   0.00962   0.00906   2.01745
    A8        2.17070  -0.00488   0.00000  -0.01894  -0.01947   2.15123
    A9        2.10391   0.00254   0.00000   0.01042   0.00985   2.11375
   A10        1.95929  -0.00263   0.00000  -0.01314  -0.01310   1.94619
   A11        1.92803   0.00228   0.00000   0.01218   0.01220   1.94023
   A12        1.92474   0.00166   0.00000   0.00907   0.00909   1.93383
   A13        1.87710   0.00054   0.00000   0.00556   0.00560   1.88270
   A14        1.87760   0.00109   0.00000   0.01017   0.01020   1.88780
   A15        1.89492  -0.00307   0.00000  -0.02468  -0.02468   1.87025
   A16        2.06970  -0.00194   0.00000  -0.01339  -0.01341   2.05629
   A17        2.22506  -0.00187   0.00000  -0.00835  -0.00836   2.21669
   A18        1.98829   0.00381   0.00000   0.02191   0.02189   2.01018
   A19        1.90997   0.00239   0.00000   0.01565   0.01560   1.92557
   A20        1.91727   0.00395   0.00000   0.02327   0.02323   1.94050
   A21        1.98129  -0.00300   0.00000  -0.01848  -0.01840   1.96289
   A22        1.88717  -0.00310   0.00000  -0.01887  -0.01905   1.86813
   A23        1.87271   0.00053   0.00000   0.00494   0.00501   1.87771
   A24        1.89281  -0.00094   0.00000  -0.00757  -0.00747   1.88534
   A25        1.89075  -0.00241   0.00000  -0.02168  -0.02166   1.86909
   A26        1.86371   0.00200   0.00000   0.01698   0.01700   1.88070
   A27        1.92082  -0.00000   0.00000  -0.00091  -0.00089   1.91993
   A28        1.88442   0.00023   0.00000   0.00328   0.00331   1.88772
   A29        1.92159   0.00231   0.00000   0.01170   0.01172   1.93331
   A30        1.97966  -0.00222   0.00000  -0.01016  -0.01014   1.96952
   A31        1.99473   0.00145   0.00000   0.00577   0.00575   2.00048
   A32        2.18269  -0.00330   0.00000  -0.01299  -0.01301   2.16968
   A33        2.10572   0.00185   0.00000   0.00733   0.00731   2.11303
   A34        1.96065  -0.00277   0.00000  -0.01390  -0.01386   1.94678
   A35        1.92483   0.00221   0.00000   0.01243   0.01245   1.93728
   A36        1.92342   0.00175   0.00000   0.00879   0.00881   1.93223
   A37        1.87926   0.00092   0.00000   0.00932   0.00936   1.88861
   A38        1.87886   0.00092   0.00000   0.00791   0.00794   1.88680
   A39        1.89482  -0.00313   0.00000  -0.02538  -0.02537   1.86945
   A40        2.06720  -0.00168   0.00000  -0.01186  -0.01226   2.05494
   A41        2.22713  -0.00225   0.00000  -0.00993  -0.01034   2.21679
   A42        1.98873   0.00394   0.00000   0.02258   0.02216   2.01089
   A43        1.94455   0.00330   0.00000   0.01361   0.01364   1.95819
   A44        1.92096  -0.00239   0.00000  -0.01480  -0.01500   1.90596
   A45        1.92610  -0.00264   0.00000  -0.02497  -0.02503   1.90107
   A46        1.88060   0.00061   0.00000   0.01705   0.01710   1.89770
   A47        1.94652  -0.00052   0.00000  -0.00237  -0.00232   1.94420
   A48        1.84177   0.00155   0.00000   0.01200   0.01173   1.85350
    D1       -2.64265  -0.00174   0.00000  -0.05217  -0.05196  -2.69461
    D2        0.47853  -0.00076   0.00000   0.01004   0.00981   0.48834
    D3       -0.63961   0.00059   0.00000  -0.02156  -0.02131  -0.66092
    D4        2.48157   0.00156   0.00000   0.04065   0.04045   2.52203
    D5        1.49167  -0.00048   0.00000  -0.03924  -0.03903   1.45264
[...]
                 (A) (A) (A) (A) (A) (A) (A) (A) (A) (A) (A) (A)
                 (A) (A) (A) (A) (A) (A) (A) (A) (A) (A) (A) (A)
                 (A) (A) (A) (A) (A) (A) (A) (A) (A) (A) (A) (A)
                 (A) (A) (A) (A) (A) (A) (A) (A) (A) (A) (A) (A)
                 (A) (A) (A) (A) (A) (A) (A) (A) (A) (A) (A) (A)
                 (A) (A) (A) (A) (A) (A) (A) (A) (A) (A) (A) (A)
                 (A) (A) (A) (A) (A) (A) (A) (A) (A) (A) (A) (A)
                 (A) (A) (A) (A) (A) (A) (A) (A) (A) (A) (A) (A)
                 (A) (A) (A) (A) (A) (A) (A) (A) (A) (A) (A) (A)
                 (A) (A) (A) (A) (A) (A) (A) (A) (A) (A) (A) (A)
                 (A) (A) (A) (A) (A) (A) (A) (A) (A) (A) (A) (A)
                 (A) (A) (A) (A) (A) (A) (A) (A) (A) (A) (A) (A)
                 (A) (A) (A) (A) (A) (A) (A) (A) (A)
 The electronic state is 1-A.
 Alpha  occ. eigenvalues --  -11.23020 -11.22460 -11.21868 -11.21730 -11.21712
 Alpha  occ. eigenvalues --  -11.21539 -11.21506 -11.21436 -11.21417 -11.21348
 Alpha  occ. eigenvalues --   -1.10821  -1.08492  -1.01823  -0.98143  -0.93838
 Alpha  occ. eigenvalues --   -0.91939  -0.86963  -0.82855  -0.70494  -0.69519
 Alpha  occ. eigenvalues --   -0.64988  -0.61512  -0.60591  -0.58878  -0.58366
 Alpha  occ. eigenvalues --   -0.56774  -0.55298  -0.54966  -0.53295  -0.52261
 Alpha  occ. eigenvalues --   -0.51859  -0.51173  -0.50832  -0.49581  -0.48519
 Alpha  occ. eigenvalues --   -0.46073  -0.44624  -0.33371  -0.31514
 Alpha virt. eigenvalues --    0.18142   0.19779   0.22152   0.24486   0.25192
 Alpha virt. eigenvalues --    0.27439   0.28535   0.28922   0.30318   0.30811
 Alpha virt. eigenvalues --    0.31477   0.32261   0.33202   0.33794   0.34383
 Alpha virt. eigenvalues --    0.35458   0.36114   0.36962   0.39185   0.40602
 Alpha virt. eigenvalues --    0.41328   0.42631   0.43685   0.44253   0.45395
 Alpha virt. eigenvalues --    0.51702   0.54378   0.61070   0.62576   0.70520
 Alpha virt. eigenvalues --    0.71073   0.72196   0.73768   0.76075   0.76177
 Alpha virt. eigenvalues --    0.76620   0.79010   0.79474   0.81070   0.82306
 Alpha virt. eigenvalues --    0.83713   0.85579   0.89117   0.91091   0.91343
 Alpha virt. eigenvalues --    0.92820   0.94745   0.97065   0.98284   0.98818
 Alpha virt. eigenvalues --    0.99710   1.00468   1.01911   1.03844   1.06577
 Alpha virt. eigenvalues --    1.08019   1.08221   1.09393   1.11664   1.12687
 Alpha virt. eigenvalues --    1.13026   1.13870   1.14856   1.15402   1.16045
 Alpha virt. eigenvalues --    1.16257   1.16619   1.18722   1.19116   1.20671
 Alpha virt. eigenvalues --    1.20953   1.23032   1.23885   1.25765   1.28153
 Alpha virt. eigenvalues --    1.34331   1.41723   1.42153   1.44890   1.46395
 Alpha virt. eigenvalues --    1.48456   1.54136   1.55360   1.57256   1.58165
 Alpha virt. eigenvalues --    1.61459   1.63397   1.66485   1.69046   1.69645
 Alpha virt. eigenvalues --    1.73917   1.82243   1.91111   1.93363   1.96231
 Alpha virt. eigenvalues --    1.98688   2.01467   2.02277   2.03942   2.08565
 Alpha virt. eigenvalues --    2.09706   2.10748   2.11744   2.13037   2.14903
 Alpha virt. eigenvalues --    2.15780   2.16940   2.19854   2.23666   2.28347
 Alpha virt. eigenvalues --    2.29590   2.30325   2.33235   2.35347   2.35688
 Alpha virt. eigenvalues --    2.35978   2.36098   2.38923   2.40264   2.41259
 Alpha virt. eigenvalues --    2.42195   2.43169   2.44154   2.45371   2.46084
 Alpha virt. eigenvalues --    2.47201   2.49167   2.49622   2.51174   2.54099
 Alpha virt. eigenvalues --    2.57315   2.58365   2.61888   2.63241   2.64107
 Alpha virt. eigenvalues --    2.67127   2.68175   2.71776   2.73352   2.73474
 Alpha virt. eigenvalues --    2.75815   2.77410   2.80796   2.82634   2.85354
 Alpha virt. eigenvalues --    2.87137   2.89441   2.92178   2.93739   2.94867
 Alpha virt. eigenvalues --    2.97869   2.99094   3.00960   3.02677   3.05807
 Alpha virt. eigenvalues --    3.06402   3.07703   3.09315   3.13762   3.17093
 Alpha virt. eigenvalues --    3.17589   3.19238   3.20046   3.21242   3.22334
 Alpha virt. eigenvalues --    3.24167   3.25050   3.26607   3.27420   3.37866
 Alpha virt. eigenvalues --    3.40355   3.46023   3.46902   3.56200   3.58183
 Alpha virt. eigenvalues --    3.59499   3.62406   3.67928   3.75494   3.78622
 Alpha virt. eigenvalues --    3.80005   3.81570   3.82569   3.83286   3.83898
 Alpha virt. eigenvalues --    3.84750   3.86481   3.87645   3.89820   3.91558
 Alpha virt. eigenvalues --    3.97645   4.59389   4.63170   4.74472   4.82572
 Alpha virt. eigenvalues --    4.88928   4.92582   4.93409   5.07840   5.10766
 Alpha virt. eigenvalues --    5.17766
          Condensed to atoms (all electrons):
               1          2          3          4          5          6
     1  C    5.004767   0.411715   0.414473   0.337355  -0.056085   0.003801
     2  H    0.411715   0.572983  -0.028296  -0.038988   0.003071  -0.000108
     3  H    0.414473  -0.028296   0.587507  -0.046308  -0.004587   0.000106
     4  C    0.337355  -0.038988  -0.046308   4.952603   0.351934  -0.042765
     5  C   -0.056085   0.003071  -0.004587   0.351934   4.891804   0.407087
     6  H    0.003801  -0.000108   0.000106  -0.042765   0.407087   0.568858
     7  H    0.000011  -0.000005  -0.000489  -0.045679   0.400946  -0.027466
     8  H   -0.003698  -0.000034   0.002378  -0.041506   0.397495  -0.026764
     9  C   -0.047991  -0.001860   0.002531   0.697840  -0.046054  -0.002890
    10  H    0.003272   0.000031  -0.000118  -0.037842  -0.006525   0.002385
    11  C   -0.007749  -0.002811   0.000160  -0.050271   0.003364   0.000132
    12  H    0.000310  -0.000067  -0.000013  -0.000247  -0.000095  -0.000006
    13  H    0.000152   0.000184   0.000017  -0.000627  -0.000106  -0.000006
    14  H   -0.001745  -0.001657   0.000030  -0.000691   0.000109   0.000005
    15  C    0.000587   0.000200  -0.000015  -0.000018  -0.000000  -0.000000
    16  H    0.000130  -0.000135  -0.000002  -0.000005   0.000000  -0.000000
    17  H   -0.000040   0.000022   0.000000   0.000001  -0.000000   0.000000
    18  H   -0.000302  -0.000131  -0.000016  -0.000011  -0.000000   0.000000
    19  C   -0.004325   0.001388   0.000787   0.000041  -0.000003   0.000000
    20  C   -0.000099  -0.000043  -0.000004   0.000001  -0.000000   0.000000
    21  H   -0.000003  -0.000002   0.000003   0.000000  -0.000000   0.000000
    22  H    0.000024  -0.000007  -0.000002  -0.000000   0.000000  -0.000000
    23  H   -0.000005   0.000002   0.000000   0.000000  -0.000000   0.000000
    24  C   -0.061827  -0.000504  -0.000900   0.006443  -0.000149   0.000004
    25  H    0.000175   0.000111   0.001011  -0.000152   0.000010  -0.000000
    26  C    0.332330  -0.041801  -0.046074  -0.055544  -0.000661  -0.000109
    27  H   -0.046841   0.004515  -0.001931  -0.002075  -0.000289  -0.000050
    28  H   -0.042369  -0.003118   0.004477  -0.001813   0.000243  -0.000005
               7          8          9         10         11         12
     1  C    0.000011  -0.003698  -0.047991   0.003272  -0.007749   0.000310
     2  H   -0.000005  -0.000034  -0.001860   0.000031  -0.002811  -0.000067
     3  H   -0.000489   0.002378   0.002531  -0.000118   0.000160  -0.000013
     4  C   -0.045679  -0.041506   0.697840  -0.037842  -0.050271  -0.000247
     5  C    0.400946   0.397495  -0.046054  -0.006525   0.003364  -0.000095
     6  H   -0.027466  -0.026764  -0.002890   0.002385   0.000132  -0.000006
     7  H    0.596034  -0.037541  -0.001011   0.000135  -0.000101   0.000017
     8  H   -0.037541   0.591921  -0.000373   0.000216  -0.000105  -0.000004
     9  C   -0.001011  -0.000373   4.938970   0.404494   0.340494  -0.041805
    10  H    0.000135   0.000216   0.404494   0.558671  -0.041279  -0.001264
    11  C   -0.000101  -0.000105   0.340494  -0.041279   4.900974   0.402169
    12  H    0.000017  -0.000004  -0.041805  -0.001264   0.402169   0.586720
    13  H   -0.000004   0.000017  -0.041523  -0.001122   0.401144  -0.035462
    14  H   -0.000003   0.000002  -0.043903   0.003299   0.409079  -0.029956
    15  C   -0.000000   0.000000   0.000015  -0.000000  -0.000147  -0.000015
    16  H    0.000000  -0.000000   0.000000  -0.000000  -0.000009   0.000000
    17  H   -0.000000   0.000000   0.000000   0.000000   0.000003  -0.000000
    18  H    0.000000  -0.000000  -0.000045   0.000000   0.000074   0.000114
    19  C    0.000000   0.000000  -0.000001   0.000000   0.000013   0.000001
    20  C   -0.000000  -0.000000  -0.000000   0.000000  -0.000000  -0.000000
    21  H   -0.000000  -0.000000  -0.000000   0.000000   0.000000  -0.000000
    22  H    0.000000  -0.000000   0.000000  -0.000000  -0.000000   0.000000
    23  H    0.000000   0.000000   0.000000   0.000000   0.000000  -0.000000
    24  C   -0.000111   0.000004   0.000114   0.000002  -0.000031  -0.000009
    25  H    0.000015  -0.000001  -0.000002  -0.000000   0.000000   0.000000
    26  C    0.000609   0.000086  -0.004911  -0.000113   0.000577   0.000163
    27  H    0.000197   0.000058   0.000760   0.000001  -0.000033  -0.000000
    28  H   -0.000015   0.000006   0.001406  -0.000046  -0.000082  -0.000140
              13         14         15         16         17         18
     1  C    0.000152  -0.001745   0.000587   0.000130  -0.000040  -0.000302
     2  H    0.000184  -0.001657   0.000200  -0.000135   0.000022  -0.000131
     3  H    0.000017   0.000030  -0.000015  -0.000002   0.000000  -0.000016
     4  C   -0.000627  -0.000691  -0.000018  -0.000005   0.000001  -0.000011
     5  C   -0.000106   0.000109  -0.000000   0.000000  -0.000000  -0.000000
     6  H   -0.000006   0.000005  -0.000000  -0.000000   0.000000   0.000000
     7  H   -0.000004  -0.000003  -0.000000   0.000000  -0.000000   0.000000
     8  H    0.000017   0.000002   0.000000  -0.000000   0.000000  -0.000000
     9  C   -0.041523  -0.043903   0.000015   0.000000   0.000000  -0.000045
    10  H   -0.001122   0.003299  -0.000000  -0.000000   0.000000   0.000000
    11  C    0.401144   0.409079  -0.000147  -0.000009   0.000003   0.000074
    12  H   -0.035462  -0.029956  -0.000015   0.000000  -0.000000   0.000114
    13  H    0.583648  -0.027132   0.000004  -0.000000   0.000000  -0.000013
    14  H   -0.027132   0.577164  -0.000000   0.000079  -0.000008   0.000412
    15  C    0.000004  -0.000000   4.907254   0.401208   0.399852   0.407154
    16  H   -0.000000   0.000079   0.401208   0.587442  -0.035759  -0.028659
    17  H    0.000000  -0.000008   0.399852  -0.035759   0.584669  -0.026060
    18  H   -0.000013   0.000412   0.407154  -0.028659  -0.026060   0.568221
    19  C   -0.000000  -0.000026   0.350333  -0.043385  -0.043537  -0.037848
    20  C    0.000000   0.000000  -0.064931  -0.002632  -0.002223   0.003725
    21  H   -0.000000  -0.000000   0.003785  -0.000032  -0.000053  -0.000113
    22  H   -0.000000  -0.000000  -0.001975   0.002756  -0.000456  -0.000068
    23  H    0.000000  -0.000000  -0.001201  -0.000476   0.002766  -0.000031
    24  C    0.000002   0.000026  -0.044248  -0.000031  -0.000365  -0.003253
    25  H    0.000000  -0.000002   0.003528  -0.000121  -0.000121   0.000061
    26  C   -0.000037  -0.000737  -0.008144   0.000367   0.000117  -0.002069
    27  H   -0.000000  -0.000010   0.000195  -0.000014   0.000021   0.000058
    28  H    0.000037  -0.000475  -0.002693  -0.000076   0.000113  -0.001675
              19         20         21         22         23         24
     1  C   -0.004325  -0.000099  -0.000003   0.000024  -0.000005  -0.061827
     2  H    0.001388  -0.000043  -0.000002  -0.000007   0.000002  -0.000504
     3  H    0.000787  -0.000004   0.000003  -0.000002   0.000000  -0.000900
     4  C    0.000041   0.000001   0.000000  -0.000000   0.000000   0.006443
     5  C   -0.000003  -0.000000  -0.000000   0.000000  -0.000000  -0.000149
     6  H    0.000000   0.000000   0.000000  -0.000000   0.000000   0.000004
     7  H    0.000000  -0.000000  -0.000000   0.000000   0.000000  -0.000111
     8  H    0.000000  -0.000000  -0.000000  -0.000000   0.000000   0.000004
     9  C   -0.000001  -0.000000  -0.000000   0.000000   0.000000   0.000114
    10  H    0.000000   0.000000   0.000000  -0.000000   0.000000   0.000002
    11  C    0.000013  -0.000000   0.000000  -0.000000   0.000000  -0.000031
    12  H    0.000001  -0.000000  -0.000000   0.000000  -0.000000  -0.000009
    13  H   -0.000000   0.000000  -0.000000  -0.000000   0.000000   0.000002
    14  H   -0.000026   0.000000  -0.000000  -0.000000  -0.000000   0.000026
    15  C    0.350333  -0.064931   0.003785  -0.001975  -0.001201  -0.044248
    16  H   -0.043385  -0.002632  -0.000032   0.002756  -0.000476  -0.000031
    17  H   -0.043537  -0.002223  -0.000053  -0.000456   0.002766  -0.000365
    18  H   -0.037848   0.003725  -0.000113  -0.000068  -0.000031  -0.003253
    19  C    4.914193   0.353753  -0.041639  -0.043899  -0.044274   0.697734
    20  C    0.353753   4.900112   0.406218   0.398238   0.398811  -0.044415
    21  H   -0.041639   0.406218   0.566018  -0.026703  -0.026549  -0.002632
    22  H   -0.043899   0.398238  -0.026703   0.594542  -0.037806  -0.000422
    23  H   -0.044274   0.398811  -0.026549  -0.037806   0.593607  -0.001270
    24  C    0.697734  -0.044415  -0.002632  -0.000422  -0.001270   4.962747
    25  H   -0.038449  -0.006963   0.002335   0.000182   0.000187   0.403391
    26  C   -0.050100   0.003126   0.000148  -0.000068  -0.000131   0.338699
    27  H    0.001583  -0.000094  -0.000010  -0.000002   0.000009  -0.041394
    28  H    0.000438   0.000051   0.000007  -0.000005   0.000007  -0.044060
              25         26         27         28
     1  C    0.000175   0.332330  -0.046841  -0.042369
     2  H    0.000111  -0.041801   0.004515  -0.003118
     3  H    0.001011  -0.046074  -0.001931   0.004477
     4  C   -0.000152  -0.055544  -0.002075  -0.001813
     5  C    0.000010  -0.000661  -0.000289   0.000243
     6  H   -0.000000  -0.000109  -0.000050  -0.000005
     7  H    0.000015   0.000609   0.000197  -0.000015
     8  H   -0.000001   0.000086   0.000058   0.000006
     9  C   -0.000002  -0.004911   0.000760   0.001406
    10  H   -0.000000  -0.000113   0.000001  -0.000046
    11  C    0.000000   0.000577  -0.000033  -0.000082
    12  H    0.000000   0.000163  -0.000000  -0.000140
    13  H    0.000000  -0.000037  -0.000000   0.000037
    14  H   -0.000002  -0.000737  -0.000010  -0.000475
    15  C    0.003528  -0.008144   0.000195  -0.002693
    16  H   -0.000121   0.000367  -0.000014  -0.000076
    17  H   -0.000121   0.000117   0.000021   0.000113
    18  H    0.000061  -0.002069   0.000058  -0.001675
    19  C   -0.038449  -0.050100   0.001583   0.000438
    20  C   -0.006963   0.003126  -0.000094   0.000051
    21  H    0.002335   0.000148  -0.000010   0.000007
    22  H    0.000182  -0.000068  -0.000002  -0.000005
    23  H    0.000187  -0.000131   0.000009   0.000007
    24  C    0.403391   0.338699  -0.041394  -0.044060
    25  H    0.557389  -0.039113  -0.003424   0.003152
    26  C   -0.039113   4.979544   0.413482   0.415850
    27  H   -0.003424   0.413482   0.585267  -0.028362
    28  H    0.003152   0.415850  -0.028362   0.575347
 Mulliken charges:
               1
     1  C   -0.236021
     2  H    0.125346
     3  H    0.115272
     4  C    0.018322
     5  C   -0.341505
     6  H    0.117792
     7  H    0.114461
     8  H    0.117845
     9  C   -0.154256
    10  H    0.115801
    11  C   -0.355567
    12  H    0.119588
    13  H    0.120829
    14  H    0.116140
    15  C   -0.350727
    16  H    0.119352
    17  H    0.121058
    18  H    0.120474
    19  C    0.027222
    20  C   -0.342631
    21  H    0.119222
    22  H    0.115672
    23  H    0.116356
    24  C   -0.163543
    25  H    0.116803
    26  C   -0.235486
    27  H    0.118380
    28  H    0.123802
 Sum of Mulliken charges =  -0.00000
 Mulliken charges with hydrogens summed into heavy atoms:
               1
     1  C    0.004596
     4  C    0.018322
     5  C    0.008593
     9  C   -0.038454
    11  C    0.000991
    15  C    0.010156
    19  C    0.027222
    20  C    0.008618
    24  C   -0.046740
    26  C    0.006696
 Electronic spatial extent (au):  <R**2>=           2384.0059
 Charge=             -0.0000 electrons
 Dipole moment (field-independent basis, Debye):
    X=              0.3027    Y=              0.1253    Z=              0.0460  Tot=              0.3308
 Quadrupole moment (field-independent basis, Debye-Ang):
   XX=            -64.3023   YY=            -63.2901   ZZ=            -67.3956
   XY=              0.7521   XZ=              1.2367   YZ=             -0.3487
 Traceless Quadrupole moment (field-independent basis, Debye-Ang):
   XX=              0.6937   YY=              1.7059   ZZ=             -2.3996
   XY=              0.7521   XZ=              1.2367   YZ=             -0.3487
 Octapole moment (field-independent basis, Debye-Ang**2):
  XXX=              2.6682  YYY=             -2.9989  ZZZ=              0.8999  XYY=             -0.6415
  XXY=              4.0909  XXZ=             -2.0918  XZZ=              1.2120  YZZ=              1.4955
  YYZ=              0.6111  XYZ=             -0.3641
 Hexadecapole moment (field-independent basis, Debye-Ang**3):
 XXXX=          -2435.7161 YYYY=           -693.4925 ZZZZ=           -166.6415 XXXY=              2.3046
 XXXZ=             14.7515 YYYX=            -11.0526 YYYZ=             -1.4214 ZZZX=              2.8119
 ZZZY=             -0.6411 XXYY=           -520.1245 XXZZ=           -449.2339 YYZZ=           -138.3649
 XXYZ=             -4.2785 YYXZ=              0.5785 ZZXY=              5.9188
 N-N= 5.190880040891D+02 E-N=-1.942888747323D+03  KE= 3.887471637346D+02
 No NMR shielding tensors so no spin-rotation constants.
 Leave Link  601 at Fri Sep 17 16:43:31 2021, MaxMem=   524288000 cpu:               0.4 elap:               0.6
 (Enter /opt/gaussian/g16_legacy/l9999.exe)
 1\1\GINC-TRUENO90\FOpt\RMP2-FC\6-31G(d,p)\C10H18\JRAMOS\17-Sep-2021\0\
 \#p opt mp2/6-31g(d,p)\\Conformer number 3829. Energy MM = 23.242 kcal
 /mol\\0,1\C,-0.7068206871,0.8879099269,0.2848858925\H,-0.5216357146,0.
 9127128369,-0.7901056408\H,-0.4615060501,1.8856450961,0.6601628976\C,-
 2.1509807423,0.5797197337,0.5906798819\C,-2.6896199662,1.1877446905,1.
 8570229391\H,-3.7104551824,0.863024263,2.0544342963\H,-2.074246608,0.9
 120186859,2.7163063047\H,-2.6818906787,2.2782834178,1.7979419776\C,-2.
 9150266198,-0.2255352522,-0.1707333573\H,-3.9366536837,-0.4047921663,0
 .1528223005\C,-2.5107783692,-0.9179272609,-1.4368766456\H,-2.620124894
 7,-1.9994078957,-1.3361348438\H,-3.1457067331,-0.6110115056,-2.2702014
 367\H,-1.4776416042,-0.7138159207,-1.7088178285\C,2.1095652508,-1.2215
 155486,-1.3062690759\H,2.2542596179,-0.8054040649,-2.3056439785\H,2.74
 10070197,-2.1103901186,-1.2402362247\H,1.0720457693,-1.5345191581,-1.2
 206786403\C,2.5065602947,-0.2135877778,-0.2635128645\C,3.923207585,0.2
 791024658,-0.3722142373\H,4.1559076608,1.0031282756,0.407141756\H,4.09
 81220109,0.7509151685,-1.341753282\H,4.6300566301,-0.5498448971,-0.291
 5598567\C,1.6908564585,0.2352232156,0.7090927547\H,2.0890884836,0.9824
 197187,1.3909589306\C,0.2530171313,-0.1349409167,0.9223576028\H,0.0494
 301224,-0.193166072,1.9949263956\H,0.0296634994,-1.1220889399,0.515803
 9828\\Version=EM64L-G16RevA.03\State=1-A\HF=-389.1567534\MP2=-390.5738
 646\RMSD=5.147e-09\RMSF=3.207e-06\Dipole=0.0812356,-0.0360299,-0.07495
 4\PG=C01 [X(C10H18)]\\@


 WE LEARN WISDOM FROM FAILURE MUCH MORE THAN FROM SUCCESS.
 WE DISCOVER WHAT WILL DO BY FINDING OUT WHAT WILL NOT DO...
 AND HE WHO NEVER MADE A MISTAKE NEVER MADE A DISCOVERY
 Job cpu time:       0 days  1 hours 17 minutes 39.1 seconds.
 Elapsed time:       0 days  1 hours 17 minutes 47.0 seconds.
 File lengths (MBytes):  RWF=     32 Int=      0 D2E=      0 Chk=      7 Scr=      1
 Normal termination of Gaussian 16 at Fri Sep 17 16:43:31 2021.
