 Entering Gaussian System, Link 0=/opt/gaussian/g16_legacy/g16
 Input=01-IsoP_1569_gaussian.com
 Output=01-IsoP_1569_gaussian.log
 Initial command:
 /opt/gaussian/g16_legacy/l1.exe "/scratch-local/jramos/2661332/Gau-25011.inp" -scrdir="/scratch-local/jramos/2661332/"
 Entering Link 1 = /opt/gaussian/g16_legacy/l1.exe PID=     25045.
  
 Copyright (c) 1988,1990,1992,1993,1995,1998,2003,2009,2016,
            Gaussian, Inc.  All Rights Reserved.
  
 This is part of the Gaussian(R) 16 program.  It is based on
 the Gaussian(R) 09 system (copyright 2009, Gaussian, Inc.),
 the Gaussian(R) 03 system (copyright 2003, Gaussian, Inc.),
 the Gaussian(R) 98 system (copyright 1998, Gaussian, Inc.),
 the Gaussian(R) 94 system (copyright 1995, Gaussian, Inc.),
 the Gaussian 92(TM) system (copyright 1992, Gaussian, Inc.),
 the Gaussian 90(TM) system (copyright 1990, Gaussian, Inc.),
 the Gaussian 88(TM) system (copyright 1988, Gaussian, Inc.),
 the Gaussian 86(TM) system (copyright 1986, Carnegie Mellon
 University), and the Gaussian 82(TM) system (copyright 1983,
 Carnegie Mellon University). Gaussian is a federally registered
 trademark of Gaussian, Inc.
  
 This software contains proprietary and confidential information,
 including trade secrets, belonging to Gaussian, Inc.
  
 This software is provided under written license and may be
 used, copied, transmitted, or stored only in accord with that
 written license.
  
 The following legend is applicable only to US Government
 contracts under FAR:
  
                    RESTRICTED RIGHTS LEGEND
  
 Use, reproduction and disclosure by the US Government is
 subject to restrictions as set forth in subparagraphs (a)
 and (c) of the Commercial Computer Software - Restricted
 Rights clause in FAR 52.227-19.
  
 Gaussian, Inc.
 340 Quinnipiac St., Bldg. 40, Wallingford CT 06492
  
  
 ---------------------------------------------------------------
 Warning -- This program may not be used in any manner that
 competes with the business of Gaussian, Inc. or will provide
 assistance to any competitor of Gaussian, Inc.  The licensee
 of this program is prohibited from giving any competitor of
 Gaussian, Inc. access to this program.  By using this program,
 the user acknowledges that Gaussian, Inc. is engaged in the
 business of creating and licensing software in the field of
 computational chemistry and represents and warrants to the
 licensee that it is not a competitor of Gaussian, Inc. and that
 it will not use this program in any manner prohibited above.
 ---------------------------------------------------------------
  

 Cite this work as:
 Gaussian 16, Revision A.03,
 M. J. Frisch, G. W. Trucks, H. B. Schlegel, G. E. Scuseria, 
 M. A. Robb, J. R. Cheeseman, G. Scalmani, V. Barone, 
 G. A. Petersson, H. Nakatsuji, X. Li, M. Caricato, A. V. Marenich, 
 J. Bloino, B. G. Janesko, R. Gomperts, B. Mennucci, H. P. Hratchian, 
 J. V. Ortiz, A. F. Izmaylov, J. L. Sonnenberg, D. Williams-Young, 
 F. Ding, F. Lipparini, F. Egidi, J. Goings, B. Peng, A. Petrone, 
 T. Henderson, D. Ranasinghe, V. G. Zakrzewski, J. Gao, N. Rega, 
 G. Zheng, W. Liang, M. Hada, M. Ehara, K. Toyota, R. Fukuda, 
 J. Hasegawa, M. Ishida, T. Nakajima, Y. Honda, O. Kitao, H. Nakai, 
 T. Vreven, K. Throssell, J. A. Montgomery, Jr., J. E. Peralta, 
 F. Ogliaro, M. J. Bearpark, J. J. Heyd, E. N. Brothers, K. N. Kudin, 
 V. N. Staroverov, T. A. Keith, R. Kobayashi, J. Normand, 
 K. Raghavachari, A. P. Rendell, J. C. Burant, S. S. Iyengar, 
 J. Tomasi, M. Cossi, J. M. Millam, M. Klene, C. Adamo, R. Cammi, 
 J. W. Ochterski, R. L. Martin, K. Morokuma, O. Farkas, 
 J. B. Foresman, and D. J. Fox, Gaussian, Inc., Wallingford CT, 2016.
 
 ******************************************
 Gaussian 16:  EM64L-G16RevA.03 25-Dec-2016
                17-Sep-2021 
 ******************************************
 %chk=01-IsoP_1569_gaussian.chk
 %nproc=1
 Will use up to    1 processors via shared memory.
 %mem=4000Mb
 ---------------------
 #p opt mp2/6-31g(d,p)
 ---------------------
 1/18=20,19=15,38=1/1,3;
 2/9=110,12=2,17=6,18=5,40=1/2;
 3/5=1,6=6,7=101,11=9,25=1,30=1,71=1/1,2,3;
 4//1;
 5/5=2,38=5/2;
 8/6=4,10=2/1;
 9/15=2,16=-3/6;
 10/5=1/2;
 6/7=2,8=2,9=2,10=2/1;
 7/12=2/1,2,3,16;
 1/18=20,19=15/3(2);
 2/9=110/2;
 99//99;
 2/9=110/2;
 3/5=1,6=6,7=101,11=9,25=1,30=1,71=1/1,2,3;
 4/5=5,16=3,69=1/1;
 5/5=2,38=5/2;
 8/6=4,10=2/1;
 9/15=2,16=-3/6;
 10/5=1/2;
 7/12=2/1,2,3,16;
 1/18=20,19=15/3(-8);
 2/9=110/2;
 6/7=2,8=2,9=2,10=2/1;
 99//99;
 Leave Link    1 at Fri Sep 17 13:32:35 2021, MaxMem=   524288000 cpu:               0.0 elap:               0.1
 (Enter /opt/gaussian/g16_legacy/l101.exe)
 --------------------------------------------------
 Conformer number 1569. Energy MM = 23.242 kcal/mol
 --------------------------------------------------
 Symbolic Z-matrix:
 Charge =  0 Multiplicity = 1
 C                    -0.9002    0.0996   -0.7926 
 H                    -0.9587   -0.9034   -0.3533 
 H                    -0.9693   -0.0634   -1.8766 
 C                    -2.0739    0.9464   -0.3451 
 C                    -2.4963    2.0173   -1.3179 
 H                    -1.6758    2.7201   -1.4935 
 H                    -2.7826    1.5693   -2.275 
 H                    -3.3529    2.5943   -0.9535 
 C                    -2.7367    0.7754    0.8159 
 H                    -3.584     1.4252    1.0331 
 C                    -2.4378   -0.2137    1.8979 
 H                    -3.2506   -0.9427    1.9697 
 H                    -2.3622    0.3079    2.8575 
 H                    -1.5008   -0.7544    1.7474 
 C                     2.2288   -1.1248    1.3237 
 H                     2.1738   -2.1979    1.5363 
 H                     3.0879   -0.7108    1.8615 
 H                     1.3236   -0.6745    1.7371 
 C                     2.3873   -0.8995   -0.1548 
 C                     3.5274   -1.6611   -0.779 
 H                     3.6175   -1.4689   -1.8533 
 H                     4.4747   -1.3754   -0.31 
 H                     3.383    -2.7382   -0.645 
 C                     1.5983   -0.1064   -0.9058 
 H                     1.7996   -0.0365   -1.9749 
 C                     0.4451    0.7444   -0.4441 
 H                     0.5021    0.9499    0.6298 
 H                     0.5326    1.7217   -0.9354 
 
 ITRead=  0  0  0  0  0  0  0  0  0  0  0  0  0  0  0  0  0  0  0  0
 ITRead=  0  0  0  0  0  0  0  0
 MicOpt= -1 -1 -1 -1 -1 -1 -1 -1 -1 -1 -1 -1 -1 -1 -1 -1 -1 -1 -1 -1
 MicOpt= -1 -1 -1 -1 -1 -1 -1 -1
 NAtoms=     28 NQM=       28 NQMF=       0 NMMI=      0 NMMIF=      0
                NMic=       0 NMicF=      0.
                    Isotopes and Nuclear Properties:
 (Nuclear quadrupole moments (NQMom) in fm**2, nuclear magnetic moments (NMagM)
  in nuclear magnetons)

  Atom         1           2           3           4           5           6           7           8           9          10
 IAtWgt=          12           1           1          12          12           1           1           1          12           1
 AtmWgt=  12.0000000   1.0078250   1.0078250  12.0000000  12.0000000   1.0078250   1.0078250   1.0078250  12.0000000   1.0078250
 NucSpn=           0           1           1           0           0           1           1           1           0           1
 AtZEff=  -0.0000000  -0.0000000  -0.0000000  -0.0000000  -0.0000000  -0.0000000  -0.0000000  -0.0000000  -0.0000000  -0.0000000
 NQMom=    0.0000000   0.0000000   0.0000000   0.0000000   0.0000000   0.0000000   0.0000000   0.0000000   0.0000000   0.0000000
 NMagM=    0.0000000   2.7928460   2.7928460   0.0000000   0.0000000   2.7928460   2.7928460   2.7928460   0.0000000   2.7928460
 AtZNuc=   6.0000000   1.0000000   1.0000000   6.0000000   6.0000000   1.0000000   1.0000000   1.0000000   6.0000000   1.0000000

  Atom        11          12          13          14          15          16          17          18          19          20
 IAtWgt=          12           1           1           1          12           1           1           1          12          12
 AtmWgt=  12.0000000   1.0078250   1.0078250   1.0078250  12.0000000   1.0078250   1.0078250   1.0078250  12.0000000  12.0000000
 NucSpn=           0           1           1           1           0           1           1           1           0           0
 AtZEff=  -0.0000000  -0.0000000  -0.0000000  -0.0000000  -0.0000000  -0.0000000  -0.0000000  -0.0000000  -0.0000000  -0.0000000
 NQMom=    0.0000000   0.0000000   0.0000000   0.0000000   0.0000000   0.0000000   0.0000000   0.0000000   0.0000000   0.0000000
 NMagM=    0.0000000   2.7928460   2.7928460   2.7928460   0.0000000   2.7928460   2.7928460   2.7928460   0.0000000   0.0000000
 AtZNuc=   6.0000000   1.0000000   1.0000000   1.0000000   6.0000000   1.0000000   1.0000000   1.0000000   6.0000000   6.0000000

  Atom        21          22          23          24          25          26          27          28
 IAtWgt=           1           1           1          12           1          12           1           1
 AtmWgt=   1.0078250   1.0078250   1.0078250  12.0000000   1.0078250  12.0000000   1.0078250   1.0078250
 NucSpn=           1           1           1           0           1           0           1           1
 AtZEff=  -0.0000000  -0.0000000  -0.0000000  -0.0000000  -0.0000000  -0.0000000  -0.0000000  -0.0000000
 NQMom=    0.0000000   0.0000000   0.0000000   0.0000000   0.0000000   0.0000000   0.0000000   0.0000000
 NMagM=    2.7928460   2.7928460   2.7928460   0.0000000   2.7928460   0.0000000   2.7928460   2.7928460
 AtZNuc=   1.0000000   1.0000000   1.0000000   6.0000000   1.0000000   6.0000000   1.0000000   1.0000000
 Leave Link  101 at Fri Sep 17 13:32:35 2021, MaxMem=   524288000 cpu:               0.3 elap:               0.3
 (Enter /opt/gaussian/g16_legacy/l103.exe)

 GradGradGradGradGradGradGradGradGradGradGradGradGradGradGradGradGradGrad
 Berny optimization.
 Initialization pass.
                           ----------------------------
                           !    Initial Parameters    !
                           ! (Angstroms and Degrees)  !
 --------------------------                            --------------------------
 ! Name  Definition              Value          Derivative Info.                !
 --------------------------------------------------------------------------------
 ! R1    R(1,2)                  1.0965         estimate D2E/DX2                !
 ! R2    R(1,3)                  1.0984         estimate D2E/DX2                !
 ! R3    R(1,4)                  1.5149         estimate D2E/DX2                !
 ! R4    R(1,26)                 1.532          estimate D2E/DX2                !
 ! R5    R(4,5)                  1.5072         estimate D2E/DX2                !
 ! R6    R(4,9)                  1.3478         estimate D2E/DX2                !
 ! R7    R(5,6)                  1.0945         estimate D2E/DX2                !
 ! R8    R(5,7)                  1.0949         estimate D2E/DX2                !
 ! R9    R(5,8)                  1.0952         estimate D2E/DX2                !
 ! R10   R(9,10)                 1.0896         estimate D2E/DX2                !
 ! R11   R(9,11)                 1.4961         estimate D2E/DX2                !
 ! R12   R(11,12)                1.0942         estimate D2E/DX2                !
 ! R13   R(11,13)                1.0948         estimate D2E/DX2                !
 ! R14   R(11,14)                1.0922         estimate D2E/DX2                !
 ! R15   R(15,16)                1.0953         estimate D2E/DX2                !
 ! R16   R(15,17)                1.0948         estimate D2E/DX2                !
 ! R17   R(15,18)                1.0923         estimate D2E/DX2                !
 ! R18   R(15,19)                1.5039         estimate D2E/DX2                !
 ! R19   R(19,20)                1.5065         estimate D2E/DX2                !
 ! R20   R(19,24)                1.3474         estimate D2E/DX2                !
 ! R21   R(20,21)                1.0951         estimate D2E/DX2                !
 ! R22   R(20,22)                1.095          estimate D2E/DX2                !
 ! R23   R(20,23)                1.095          estimate D2E/DX2                !
 ! R24   R(24,25)                1.0901         estimate D2E/DX2                !
 ! R25   R(24,26)                1.5056         estimate D2E/DX2                !
 ! R26   R(26,27)                1.0949         estimate D2E/DX2                !
 ! R27   R(26,28)                1.0973         estimate D2E/DX2                !
 ! A1    A(2,1,3)              104.8497         estimate D2E/DX2                !
 ! A2    A(2,1,4)              110.5864         estimate D2E/DX2                !
 ! A3    A(2,1,26)             109.9192         estimate D2E/DX2                !
 ! A4    A(3,1,4)              109.011          estimate D2E/DX2                !
 ! A5    A(3,1,26)             110.0116         estimate D2E/DX2                !
 ! A6    A(4,1,26)             112.2028         estimate D2E/DX2                !
 ! A7    A(1,4,5)              115.0652         estimate D2E/DX2                !
 ! A8    A(1,4,9)              124.3718         estimate D2E/DX2                !
 ! A9    A(5,4,9)              120.5526         estimate D2E/DX2                !
 ! A10   A(4,5,6)              110.4687         estimate D2E/DX2                !
 ! A11   A(4,5,7)              110.2905         estimate D2E/DX2                !
 ! A12   A(4,5,8)              112.2584         estimate D2E/DX2                !
 ! A13   A(6,5,7)              108.5734         estimate D2E/DX2                !
 ! A14   A(6,5,8)              107.5425         estimate D2E/DX2                !
 ! A15   A(7,5,8)              107.5723         estimate D2E/DX2                !
 ! A16   A(4,9,10)             118.5841         estimate D2E/DX2                !
 ! A17   A(4,9,11)             127.4896         estimate D2E/DX2                !
 ! A18   A(10,9,11)            113.9186         estimate D2E/DX2                !
 ! A19   A(9,11,12)            109.8472         estimate D2E/DX2                !
 ! A20   A(9,11,13)            109.4333         estimate D2E/DX2                !
 ! A21   A(9,11,14)            113.5165         estimate D2E/DX2                !
 ! A22   A(12,11,13)           108.1316         estimate D2E/DX2                !
 ! A23   A(12,11,14)           108.4503         estimate D2E/DX2                !
 ! A24   A(13,11,14)           107.3007         estimate D2E/DX2                !
 ! A25   A(16,15,17)           108.3317         estimate D2E/DX2                !
 ! A26   A(16,15,18)           106.7871         estimate D2E/DX2                !
 ! A27   A(16,15,19)           110.0517         estimate D2E/DX2                !
 ! A28   A(17,15,18)           107.968          estimate D2E/DX2                !
 ! A29   A(17,15,19)           110.0938         estimate D2E/DX2                !
 ! A30   A(18,15,19)           113.4317         estimate D2E/DX2                !
 ! A31   A(15,19,20)           114.2901         estimate D2E/DX2                !
 ! A32   A(15,19,24)           125.0575         estimate D2E/DX2                !
 ! A33   A(20,19,24)           120.6495         estimate D2E/DX2                !
 ! A34   A(19,20,21)           112.335          estimate D2E/DX2                !
 ! A35   A(19,20,22)           110.2033         estimate D2E/DX2                !
 ! A36   A(19,20,23)           110.2911         estimate D2E/DX2                !
 ! A37   A(21,20,22)           107.6512         estimate D2E/DX2                !
 ! A38   A(21,20,23)           107.6714         estimate D2E/DX2                !
 ! A39   A(22,20,23)           108.5623         estimate D2E/DX2                !
 ! A40   A(19,24,25)           118.4391         estimate D2E/DX2                !
 ! A41   A(19,24,26)           127.6038         estimate D2E/DX2                !
 ! A42   A(25,24,26)           113.9498         estimate D2E/DX2                !
 ! A43   A(1,26,24)            111.4071         estimate D2E/DX2                !
 ! A44   A(1,26,27)            110.355          estimate D2E/DX2                !
 ! A45   A(1,26,28)            110.0609         estimate D2E/DX2                !
 ! A46   A(24,26,27)           111.5285         estimate D2E/DX2                !
 ! A47   A(24,26,28)           107.7522         estimate D2E/DX2                !
 ! A48   A(27,26,28)           105.5353         estimate D2E/DX2                !
 ! D1    D(2,1,4,5)           -151.4093         estimate D2E/DX2                !
 ! D2    D(2,1,4,9)             27.4155         estimate D2E/DX2                !
 ! D3    D(3,1,4,5)            -36.6397         estimate D2E/DX2                !
 ! D4    D(3,1,4,9)            142.1851         estimate D2E/DX2                !
 ! D5    D(26,1,4,5)            85.4716         estimate D2E/DX2                !
 ! D6    D(26,1,4,9)           -95.7037         estimate D2E/DX2                !
 ! D7    D(2,1,26,24)           56.9388         estimate D2E/DX2                !
 ! D8    D(2,1,26,27)          -67.523          estimate D2E/DX2                !
 ! D9    D(2,1,26,28)          176.3984         estimate D2E/DX2                !
 ! D10   D(3,1,26,24)          -58.0274         estimate D2E/DX2                !
 ! D11   D(3,1,26,27)          177.5108         estimate D2E/DX2                !
 ! D12   D(3,1,26,28)           61.4322         estimate D2E/DX2                !
 ! D13   D(4,1,26,24)         -179.5673         estimate D2E/DX2                !
 ! D14   D(4,1,26,27)           55.9708         estimate D2E/DX2                !
 ! D15   D(4,1,26,28)          -60.1077         estimate D2E/DX2                !
 ! D16   D(1,4,5,6)            -60.5366         estimate D2E/DX2                !
 ! D17   D(1,4,5,7)             59.4953         estimate D2E/DX2                !
 ! D18   D(1,4,5,8)            179.4371         estimate D2E/DX2                !
 ! D19   D(9,4,5,6)            120.5899         estimate D2E/DX2                !
 ! D20   D(9,4,5,7)           -119.3783         estimate D2E/DX2                !
 ! D21   D(9,4,5,8)              0.5635         estimate D2E/DX2                !
 ! D22   D(1,4,9,10)          -178.592          estimate D2E/DX2                !
 ! D23   D(1,4,9,11)             2.4848         estimate D2E/DX2                !
 ! D24   D(5,4,9,10)             0.1718         estimate D2E/DX2                !
 ! D25   D(5,4,9,11)          -178.7514         estimate D2E/DX2                !
 ! D26   D(4,9,11,12)         -113.6789         estimate D2E/DX2                !
 ! D27   D(4,9,11,13)          127.754          estimate D2E/DX2                !
 ! D28   D(4,9,11,14)            7.9231         estimate D2E/DX2                !
 ! D29   D(10,9,11,12)          67.3555         estimate D2E/DX2                !
 ! D30   D(10,9,11,13)         -51.2116         estimate D2E/DX2                !
 ! D31   D(10,9,11,14)        -171.0426         estimate D2E/DX2                !
 ! D32   D(16,15,19,20)        -52.7806         estimate D2E/DX2                !
 ! D33   D(16,15,19,24)        126.6021         estimate D2E/DX2                !
 ! D34   D(17,15,19,20)         66.5625         estimate D2E/DX2                !
 ! D35   D(17,15,19,24)       -114.0549         estimate D2E/DX2                !
 ! D36   D(18,15,19,20)       -172.3365         estimate D2E/DX2                !
 ! D37   D(18,15,19,24)          7.0462         estimate D2E/DX2                !
 ! D38   D(15,19,20,21)       -179.6314         estimate D2E/DX2                !
 ! D39   D(15,19,20,22)        -59.5987         estimate D2E/DX2                !
 ! D40   D(15,19,20,23)         60.2499         estimate D2E/DX2                !
 ! D41   D(24,19,20,21)          0.956          estimate D2E/DX2                !
 ! D42   D(24,19,20,22)        120.9887         estimate D2E/DX2                !
 ! D43   D(24,19,20,23)       -119.1627         estimate D2E/DX2                !
 ! D44   D(15,19,24,25)       -178.8255         estimate D2E/DX2                !
 ! D45   D(15,19,24,26)          2.2232         estimate D2E/DX2                !
 ! D46   D(20,19,24,25)          0.5204         estimate D2E/DX2                !
 ! D47   D(20,19,24,26)       -178.4309         estimate D2E/DX2                !
 ! D48   D(19,24,26,1)        -103.3681         estimate D2E/DX2                !
 ! D49   D(19,24,26,27)         20.4312         estimate D2E/DX2                !
 ! D50   D(19,24,26,28)        135.8103         estimate D2E/DX2                !
 ! D51   D(25,24,26,1)          77.6409         estimate D2E/DX2                !
 ! D52   D(25,24,26,27)       -158.5598         estimate D2E/DX2                !
 ! D53   D(25,24,26,28)        -43.1807         estimate D2E/DX2                !
 --------------------------------------------------------------------------------
 Trust Radius=3.00D-01 FncErr=1.00D-07 GrdErr=1.00D-07 EigMax=2.50D+02 EigMin=1.00D-04
 Number of steps in this run=    138 maximum allowed number of steps=    168.
 GradGradGradGradGradGradGradGradGradGradGradGradGradGradGradGradGradGrad

 Leave Link  103 at Fri Sep 17 13:32:35 2021, MaxMem=   524288000 cpu:               0.0 elap:               0.0
 (Enter /opt/gaussian/g16_legacy/l202.exe)
                          Input orientation:                          
 ---------------------------------------------------------------------
 Center     Atomic      Atomic             Coordinates (Angstroms)
 Number     Number       Type             X           Y           Z
 ---------------------------------------------------------------------
      1          6           0       -0.900200    0.099600   -0.792600
      2          1           0       -0.958700   -0.903400   -0.353300
      3          1           0       -0.969300   -0.063400   -1.876600
      4          6           0       -2.073900    0.946400   -0.345100
      5          6           0       -2.496300    2.017300   -1.317900
      6          1           0       -1.675800    2.720100   -1.493500
      7          1           0       -2.782600    1.569300   -2.275000
      8          1           0       -3.352900    2.594300   -0.953500
      9          6           0       -2.736700    0.775400    0.815900
     10          1           0       -3.584000    1.425200    1.033100
     11          6           0       -2.437800   -0.213700    1.897900
     12          1           0       -3.250600   -0.942700    1.969700
     13          1           0       -2.362200    0.307900    2.857500
     14          1           0       -1.500800   -0.754400    1.747400
     15          6           0        2.228800   -1.124800    1.323700
     16          1           0        2.173800   -2.197900    1.536300
     17          1           0        3.087900   -0.710800    1.861500
     18          1           0        1.323600   -0.674500    1.737100
     19          6           0        2.387300   -0.899500   -0.154800
     20          6           0        3.527400   -1.661100   -0.779000
     21          1           0        3.617500   -1.468900   -1.853300
     22          1           0        4.474700   -1.375400   -0.310000
     23          1           0        3.383000   -2.738200   -0.645000
     24          6           0        1.598300   -0.106400   -0.905800
     25          1           0        1.799600   -0.036500   -1.974900
     26          6           0        0.445100    0.744400   -0.444100
     27          1           0        0.502100    0.949900    0.629800
     28          1           0        0.532600    1.721700   -0.935400
 ---------------------------------------------------------------------
                    Distance matrix (angstroms):
                    1          2          3          4          5
     1  C    0.000000
     2  H    1.096547   0.000000
     3  H    1.098362   1.739585   0.000000
     4  C    1.514892   2.159976   2.141338   0.000000
     5  C    2.549715   3.438772   2.640679   1.507179   0.000000
     6  H    2.821318   3.865752   2.897202   2.150190   1.094524
     7  H    2.810864   3.624057   2.472345   2.148203   1.094857
     8  H    3.502164   4.280927   3.687415   2.172916   1.095208
     9  C    2.533123   2.710476   3.328189   1.347763   2.480567
    10  H    3.506163   3.773153   4.185563   2.099783   2.657231
    11  C    3.114669   2.780526   4.052892   2.551334   3.914352
    12  H    3.773734   3.263538   4.557579   3.211171   4.487637
    13  H    3.937520   3.707600   4.948711   3.278330   4.513756
    14  H    2.746204   2.174630   3.727378   2.756759   4.250812
    15  C    3.970960   3.608532   4.647186   5.058457   6.259186
    16  H    4.489071   3.880577   5.107157   5.609745   6.908271
    17  H    4.858594   4.617078   5.554583   5.853168   6.981003
    18  H    3.455995   3.103395   4.323154   4.301846   5.583050
    19  C    3.494660   3.351885   3.863990   4.831756   5.806038
    20  C    4.764860   4.569510   4.896701   6.193697   7.078559
    21  H    4.898458   4.848855   4.797365   6.363991   7.058243
    22  H    5.594468   5.454035   5.814870   6.948104   7.818000
    23  H    5.140107   4.722493   5.254894   6.591204   7.591689
    24  C    2.509532   2.734724   2.745336   3.861065   4.630948
    25  H    2.950471   3.315014   2.770775   4.315825   4.806714
    26  C    1.532009   2.166597   2.169130   2.529025   3.321993
    27  H    2.170870   2.556393   3.077960   2.754309   3.731391
    28  H    2.168990   3.074730   2.515580   2.782694   3.067233
                    6          7          8          9         10
     6  H    0.000000
     7  H    1.777664   0.000000
     8  H    1.766378   1.766983   0.000000
     9  C    3.200109   3.191559   2.611298   0.000000
    10  H    3.420775   3.406836   2.316632   1.089648   0.000000
    11  C    4.548562   4.550942   4.105211   1.496123   2.178910
    12  H    5.281084   4.954457   4.589764   2.132420   2.568137
    13  H    5.022057   5.301926   4.553332   2.127660   2.463654
    14  H    4.754599   4.818952   4.683901   2.176104   3.098484
    15  C    6.161637   6.732232   7.083270   5.340862   6.354179
    16  H    6.941602   7.299569   7.727140   5.785542   6.821461
    17  H    6.761652   7.534737   7.767356   6.101478   7.054289
    18  H    5.563855   6.163803   6.308251   4.408725   5.384134
    19  C    5.603785   6.108853   6.767160   5.477493   6.517036
    20  C    6.839497   7.244971   8.091811   6.907908   7.961216
    21  H    6.759897   7.097166   8.118233   7.248267   8.280623
    22  H    7.483478   8.074707   8.800223   7.609066   8.636546
    23  H    7.490290   7.695848   8.596690   7.206271   8.287883
    24  C    4.365114   4.886201   5.640074   4.747004   5.741199
    25  H    4.461950   4.864690   5.874744   5.387556   6.337806
    26  C    3.082669   3.801408   4.255164   3.422340   4.345027
    27  H    3.519270   4.428405   4.480169   3.248832   4.133373
    28  H    2.487028   3.578869   3.982320   3.827644   4.572669
                   11         12         13         14         15
    11  C    0.000000
    12  H    1.094185   0.000000
    13  H    1.094812   1.772412   0.000000
    14  H    1.092234   1.773887   1.761480   0.000000
    15  C    4.789255   5.520353   5.048015   3.771821   0.000000
    16  H    5.033355   5.584575   5.347887   3.953598   1.095339
    17  H    5.548134   6.343664   5.633237   4.590325   1.094841
    18  H    3.792931   4.587956   3.975617   2.825549   1.092271
    19  C    5.288241   6.025055   5.752349   4.330905   1.503943
    20  C    6.696594   7.349336   7.196421   5.699789   2.528898
    21  H    7.232820   7.878008   7.816999   6.298615   3.484282
    22  H    7.348947   8.066258   7.720736   6.350208   2.788520
    23  H    6.835287   7.352899   7.386038   5.788829   2.794820
    24  C    4.915521   5.699099   5.479017   4.130835   2.530877
    25  H    5.743304   6.471908   6.386805   5.026285   3.499910
    26  C    3.835887   4.725562   4.355689   3.291747   3.130593
    27  H    3.406619   4.411352   3.684973   2.857495   2.787000
    28  H    4.538352   5.463628   4.976423   4.178900   4.010385
                   16         17         18         19         20
    16  H    0.000000
    17  H    1.775613   0.000000
    18  H    1.756106   1.769053   0.000000
    19  C    2.142719   2.142875   2.182056   0.000000
    20  C    2.735142   2.840505   3.487244   1.506482   0.000000
    21  H    3.755676   3.828176   4.334054   2.173134   1.095070
    22  H    3.062592   2.660887   3.822474   2.146580   1.094972
    23  H    2.551893   3.237279   3.764889   2.147681   1.094967
    24  C    3.266409   3.200337   2.717189   1.347416   2.480846
    25  H    4.140073   4.102726   3.796388   2.098315   2.656086
    26  C    3.945569   3.797077   2.746393   2.560907   3.924177
    27  H    3.677631   3.310796   2.130646   2.754969   4.237273
    28  H    4.915903   4.502140   3.675556   3.304533   4.520688
                   21         22         23         24         25
    21  H    0.000000
    22  H    1.767854   0.000000
    23  H    1.768079   1.777993   0.000000
    24  C    2.613682   3.199846   3.190539   0.000000
    25  H    2.317610   3.423552   3.402201   1.090130   0.000000
    26  C    4.116875   4.555130   4.560715   1.505622   2.188110
    27  H    4.660697   4.698063   4.850441   2.162288   3.072613
    28  H    4.532006   5.052060   5.300926   2.116257   2.403563
                   26         27         28
    26  C    0.000000
    27  H    1.094870   0.000000
    28  H    1.097336   1.745410   0.000000
 Stoichiometry    C10H18
 Framework group  C1[X(C10H18)]
 Deg. of freedom    78
 Full point group                 C1      NOp   1
 Largest Abelian subgroup         C1      NOp   1
 Largest concise Abelian subgroup C1      NOp   1
                         Standard orientation:                         
 ---------------------------------------------------------------------
 Center     Atomic      Atomic             Coordinates (Angstroms)
 Number     Number       Type             X           Y           Z
 ---------------------------------------------------------------------
      1          6           0       -0.793766   -0.586494    0.589207
      2          1           0       -0.484651    0.235266    1.246150
      3          1           0       -0.746025   -1.484373    1.220027
      4          6           0       -2.220937   -0.386944    0.122021
      5          6           0       -2.975641   -1.655019   -0.184566
      6          1           0       -2.478705   -2.212185   -0.984943
      7          1           0       -3.025308   -2.291731    0.704728
      8          1           0       -4.003283   -1.458243   -0.508158
      9          6           0       -2.820206    0.813907   -0.001663
     10          1           0       -3.860378    0.846681   -0.324622
     11          6           0       -2.215707    2.161892    0.234773
     12          1           0       -2.690811    2.635665    1.099097
     13          1           0       -2.388755    2.797197   -0.639901
     14          1           0       -1.137436    2.131973    0.406278
     15          6           0        2.465975    1.425974   -0.456061
     16          1           0        2.815398    2.072698    0.355986
     17          1           0        3.076419    1.626123   -1.342613
     18          1           0        1.439636    1.726017   -0.678905
     19          6           0        2.593431   -0.018241   -0.056261
     20          6           0        3.965077   -0.407988    0.429717
     21          1           0        4.023666   -1.466059    0.705817
     22          1           0        4.709066   -0.227443   -0.353128
     23          1           0        4.237078    0.181219    1.311648
     24          6           0        1.596350   -0.923594   -0.097424
     25          1           0        1.804059   -1.940183    0.236919
     26          6           0        0.185929   -0.715582   -0.581513
     27          1           0        0.111246    0.157009   -1.238588
     28          1           0       -0.084238   -1.577098   -1.205170
 ---------------------------------------------------------------------
 Rotational constants (GHZ):           2.2180749           0.5802317           0.4854231
 Leave Link  202 at Fri Sep 17 13:32:35 2021, MaxMem=   524288000 cpu:               0.0 elap:               0.0
 (Enter /opt/gaussian/g16_legacy/l301.exe)
 Standard basis: 6-31G(d,p) (6D, 7F)
 Ernie: Thresh=  0.10000D-02 Tol=  0.10000D-05 Strict=F.
 There are   240 symmetry adapted cartesian basis functions of A   symmetry.
 There are   240 symmetry adapted basis functions of A   symmetry.
   240 basis functions,   406 primitive gaussians,   240 cartesian basis functions
    39 alpha electrons       39 beta electrons
       nuclear repulsion energy       516.4336373064 Hartrees.
 IExCor=    0 DFT=F Ex=HF Corr=None ExCW=0 ScaHFX=  1.000000
 ScaDFX=  1.000000  1.000000  1.000000  1.000000 ScalE2=  1.000000  1.000000
 IRadAn=      5 IRanWt=     -1 IRanGd=            0 ICorTp=0 IEmpDi=  4
 NAtoms=   28 NActive=   28 NUniq=   28 SFac= 1.00D+00 NAtFMM=   60 NAOKFM=F Big=F
 Integral buffers will be    131072 words long.
 Raffenetti 1 integral format.
 Two-electron integral symmetry is turned on.
 Leave Link  301 at Fri Sep 17 13:32:36 2021, MaxMem=   524288000 cpu:               0.1 elap:               0.1
 (Enter /opt/gaussian/g16_legacy/l302.exe)
 NPDir=0 NMtPBC=     1 NCelOv=     1 NCel=       1 NClECP=     1 NCelD=      1
         NCelK=      1 NCelE2=     1 NClLst=     1 CellRange=     0.0.
 One-electron integrals computed using PRISM.
 One-electron integral symmetry used in STVInt
 NBasis=   240 RedAO= T EigKep=  2.10D-03  NBF=   240
 NBsUse=   240 1.00D-06 EigRej= -1.00D+00 NBFU=   240
 Leave Link  302 at Fri Sep 17 13:32:36 2021, MaxMem=   524288000 cpu:               0.3 elap:               0.7
 (Enter /opt/gaussian/g16_legacy/l303.exe)
 DipDrv:  MaxL=1.
 Leave Link  303 at Fri Sep 17 13:32:37 2021, MaxMem=   524288000 cpu:               0.1 elap:               0.3
 (Enter /opt/gaussian/g16_legacy/l401.exe)
 ExpMin= 1.61D-01 ExpMax= 3.05D+03 ExpMxC= 4.57D+02 IAcc=3 IRadAn=         5 AccDes= 0.00D+00
 Harris functional with IExCor=  205 and IRadAn=       5 diagonalized for initial guess.
 HarFok:  IExCor=  205 AccDes= 0.00D+00 IRadAn=         5 IDoV= 1 UseB2=F ITyADJ=14
 ICtDFT=  3500011 ScaDFX=  1.000000  1.000000  1.000000  1.000000
 FoFCou: FMM=F IPFlag=           0 FMFlag=      100000 FMFlg1=           0
         NFxFlg=           0 DoJE=T BraDBF=F KetDBF=T FulRan=T
         wScrn=  0.000000 ICntrl=       500 IOpCl=  0 I1Cent=   200000004 NGrid=           0
         NMat0=    1 NMatS0=      1 NMatT0=    0 NMatD0=    1 NMtDS0=    0 NMtDT0=    0
 Petite list used in FoFCou.
 Harris En= -390.109897883834    
 JPrj=0 DoOrth=F DoCkMO=F.
 Leave Link  401 at Fri Sep 17 13:32:49 2021, MaxMem=   524288000 cpu:              11.1 elap:              12.2
 (Enter /opt/gaussian/g16_legacy/l502.exe)
 Keep R1 ints in memory in canonical form, NReq=425198025.
 FoFCou: FMM=F IPFlag=           0 FMFlag=           0 FMFlg1=           0
         NFxFlg=           0 DoJE=F BraDBF=F KetDBF=F FulRan=T
         wScrn=  0.000000 ICntrl=       600 IOpCl=  0 I1Cent=           0 NGrid=           0
         NMat0=    1 NMatS0=  28920 NMatT0=    0 NMatD0=    1 NMtDS0=    0 NMtDT0=    0
 Symmetry not used in FoFCou.
 Two-electron integral symmetry not used.
 Closed shell SCF:
 Using DIIS extrapolation, IDIIS=  1040.
 NGot=   524288000 LenX=   105970886 LenY=   105912845
 Requested convergence on RMS density matrix=1.00D-08 within 128 cycles.
 Requested convergence on MAX density matrix=1.00D-06.
 Requested convergence on             energy=1.00D-06.
 No special actions if energy rises.

 Cycle   1  Pass 1  IDiag  1:
 E= -388.533194110701    
 DIIS: error= 5.21D-02 at cycle   1 NSaved=   1.
 NSaved= 1 IEnMin= 1 EnMin= -388.533194110701     IErMin= 1 ErrMin= 5.21D-02
 ErrMax= 5.21D-02  0.00D+00 EMaxC= 1.00D-01 BMatC= 8.07D-01 BMatP= 8.07D-01
 IDIUse=3 WtCom= 4.79D-01 WtEn= 5.21D-01
 Coeff-Com:  0.100D+01
 Coeff-En:   0.100D+01
 Coeff:      0.100D+01
 Gap=     0.508 Goal=   None    Shift=    0.000
 GapD=    0.508 DampG=2.000 DampE=0.500 DampFc=1.0000 IDamp=-1.
 RMSDP=4.00D-03 MaxDP=1.14D-01              OVMax= 1.33D-01

 Cycle   2  Pass 1  IDiag  1:
 E= -389.073883725055     Delta-E=       -0.540689614354 Rises=F Damp=F
 DIIS: error= 1.59D-02 at cycle   2 NSaved=   2.
 NSaved= 2 IEnMin= 2 EnMin= -389.073883725055     IErMin= 2 ErrMin= 1.59D-02
 ErrMax= 1.59D-02  0.00D+00 EMaxC= 1.00D-01 BMatC= 8.66D-02 BMatP= 8.07D-01
 IDIUse=3 WtCom= 8.41D-01 WtEn= 1.59D-01
 Coeff-Com:  0.183D+00 0.817D+00
 Coeff-En:   0.000D+00 0.100D+01
 Coeff:      0.154D+00 0.846D+00
 Gap=     0.549 Goal=   None    Shift=    0.000
 RMSDP=1.63D-03 MaxDP=3.04D-02 DE=-5.41D-01 OVMax= 4.61D-02

 Cycle   3  Pass 1  IDiag  1:
 E= -389.151438379421     Delta-E=       -0.077554654366 Rises=F Damp=F
 DIIS: error= 3.43D-03 at cycle   3 NSaved=   3.
 NSaved= 3 IEnMin= 3 EnMin= -389.151438379421     IErMin= 3 ErrMin= 3.43D-03
 ErrMax= 3.43D-03  0.00D+00 EMaxC= 1.00D-01 BMatC= 3.14D-03 BMatP= 8.66D-02
 IDIUse=3 WtCom= 9.66D-01 WtEn= 3.43D-02
 Coeff-Com: -0.245D-01 0.106D+00 0.919D+00
 Coeff-En:   0.000D+00 0.000D+00 0.100D+01
 Coeff:     -0.236D-01 0.102D+00 0.921D+00
 Gap=     0.499 Goal=   None    Shift=    0.000
 RMSDP=2.59D-04 MaxDP=7.14D-03 DE=-7.76D-02 OVMax= 1.01D-02

 Cycle   4  Pass 1  IDiag  1:
 E= -389.155063800960     Delta-E=       -0.003625421539 Rises=F Damp=F
 DIIS: error= 5.31D-04 at cycle   4 NSaved=   4.
 NSaved= 4 IEnMin= 4 EnMin= -389.155063800960     IErMin= 4 ErrMin= 5.31D-04
 ErrMax= 5.31D-04  0.00D+00 EMaxC= 1.00D-01 BMatC= 9.28D-05 BMatP= 3.14D-03
 IDIUse=3 WtCom= 9.95D-01 WtEn= 5.31D-03
 Coeff-Com: -0.424D-02-0.189D-02 0.950D-01 0.911D+00
 Coeff-En:   0.000D+00 0.000D+00 0.000D+00 0.100D+01
 Coeff:     -0.421D-02-0.188D-02 0.945D-01 0.912D+00
 Gap=     0.499 Goal=   None    Shift=    0.000
 RMSDP=7.39D-05 MaxDP=1.49D-03 DE=-3.63D-03 OVMax= 3.14D-03

 Cycle   5  Pass 1  IDiag  1:
 E= -389.155188124280     Delta-E=       -0.000124323319 Rises=F Damp=F
 DIIS: error= 1.63D-04 at cycle   5 NSaved=   5.
 NSaved= 5 IEnMin= 5 EnMin= -389.155188124280     IErMin= 5 ErrMin= 1.63D-04
 ErrMax= 1.63D-04  0.00D+00 EMaxC= 1.00D-01 BMatC= 1.60D-05 BMatP= 9.28D-05
 IDIUse=3 WtCom= 9.98D-01 WtEn= 1.63D-03
 Coeff-Com:  0.241D-02-0.152D-01-0.102D+00 0.176D+00 0.939D+00
 Coeff-En:   0.000D+00 0.000D+00 0.000D+00 0.000D+00 0.100D+01
 Coeff:      0.241D-02-0.152D-01-0.102D+00 0.175D+00 0.939D+00
 Gap=     0.500 Goal=   None    Shift=    0.000
 RMSDP=3.00D-05 MaxDP=6.56D-04 DE=-1.24D-04 OVMax= 9.23D-04

 Cycle   6  Pass 1  IDiag  1:
 E= -389.155209606248     Delta-E=       -0.000021481969 Rises=F Damp=F
 DIIS: error= 3.58D-05 at cycle   6 NSaved=   6.
 NSaved= 6 IEnMin= 6 EnMin= -389.155209606248     IErMin= 6 ErrMin= 3.58D-05
 ErrMax= 3.58D-05  0.00D+00 EMaxC= 1.00D-01 BMatC= 5.50D-07 BMatP= 1.60D-05
 IDIUse=1 WtCom= 1.00D+00 WtEn= 0.00D+00
 Coeff-Com:  0.720D-03-0.335D-02-0.261D-01-0.434D-02 0.177D+00 0.856D+00
 Coeff:      0.720D-03-0.335D-02-0.261D-01-0.434D-02 0.177D+00 0.856D+00
 Gap=     0.500 Goal=   None    Shift=    0.000
 RMSDP=5.30D-06 MaxDP=1.61D-04 DE=-2.15D-05 OVMax= 3.23D-04

 Cycle   7  Pass 1  IDiag  1:
 E= -389.155210447153     Delta-E=       -0.000000840905 Rises=F Damp=F
 DIIS: error= 1.03D-05 at cycle   7 NSaved=   7.
 NSaved= 7 IEnMin= 7 EnMin= -389.155210447153     IErMin= 7 ErrMin= 1.03D-05
 ErrMax= 1.03D-05  0.00D+00 EMaxC= 1.00D-01 BMatC= 5.44D-08 BMatP= 5.50D-07
 IDIUse=1 WtCom= 1.00D+00 WtEn= 0.00D+00
 Coeff-Com: -0.494D-04 0.463D-03 0.301D-02-0.105D-01-0.468D-01 0.145D+00
 Coeff-Com:  0.909D+00
 Coeff:     -0.494D-04 0.463D-03 0.301D-02-0.105D-01-0.468D-01 0.145D+00
 Coeff:      0.909D+00
 Gap=     0.500 Goal=   None    Shift=    0.000
 RMSDP=1.71D-06 MaxDP=4.10D-05 DE=-8.41D-07 OVMax= 8.41D-05

 Cycle   8  Pass 1  IDiag  1:
 E= -389.155210536083     Delta-E=       -0.000000088930 Rises=F Damp=F
 DIIS: error= 3.51D-06 at cycle   8 NSaved=   8.
 NSaved= 8 IEnMin= 8 EnMin= -389.155210536083     IErMin= 8 ErrMin= 3.51D-06
 ErrMax= 3.51D-06  0.00D+00 EMaxC= 1.00D-01 BMatC= 5.10D-09 BMatP= 5.44D-08
 IDIUse=1 WtCom= 1.00D+00 WtEn= 0.00D+00
 Coeff-Com: -0.581D-04 0.249D-03 0.208D-02 0.315D-02-0.171D-01-0.804D-01
 Coeff-Com: -0.123D+00 0.121D+01
 Coeff:     -0.581D-04 0.249D-03 0.208D-02 0.315D-02-0.171D-01-0.804D-01
 Coeff:     -0.123D+00 0.121D+01
 Gap=     0.500 Goal=   None    Shift=    0.000
 RMSDP=7.85D-07 MaxDP=2.41D-05 DE=-8.89D-08 OVMax= 5.81D-05

 Cycle   9  Pass 1  IDiag  1:
 E= -389.155210551965     Delta-E=       -0.000000015882 Rises=F Damp=F
 DIIS: error= 1.46D-06 at cycle   9 NSaved=   9.
 NSaved= 9 IEnMin= 9 EnMin= -389.155210551965     IErMin= 9 ErrMin= 1.46D-06
 ErrMax= 1.46D-06  0.00D+00 EMaxC= 1.00D-01 BMatC= 7.39D-10 BMatP= 5.10D-09
 IDIUse=1 WtCom= 1.00D+00 WtEn= 0.00D+00
 Coeff-Com:  0.930D-05-0.690D-04-0.480D-03 0.144D-02 0.386D-02 0.107D-03
 Coeff-Com: -0.865D-01-0.120D+00 0.120D+01
 Coeff:      0.930D-05-0.690D-04-0.480D-03 0.144D-02 0.386D-02 0.107D-03
 Coeff:     -0.865D-01-0.120D+00 0.120D+01
 Gap=     0.500 Goal=   None    Shift=    0.000
 RMSDP=2.99D-07 MaxDP=1.24D-05 DE=-1.59D-08 OVMax= 2.71D-05

 Cycle  10  Pass 1  IDiag  1:
 E= -389.155210554381     Delta-E=       -0.000000002416 Rises=F Damp=F
 DIIS: error= 3.97D-07 at cycle  10 NSaved=  10.
 NSaved=10 IEnMin=10 EnMin= -389.155210554381     IErMin=10 ErrMin= 3.97D-07
 ErrMax= 3.97D-07  0.00D+00 EMaxC= 1.00D-01 BMatC= 1.21D-10 BMatP= 7.39D-10
 IDIUse=1 WtCom= 1.00D+00 WtEn= 0.00D+00
 Coeff-Com:  0.951D-05-0.464D-04-0.369D-03-0.135D-03 0.233D-02 0.142D-01
 Coeff-Com:  0.596D-02-0.211D+00 0.143D+00 0.105D+01
 Coeff:      0.951D-05-0.464D-04-0.369D-03-0.135D-03 0.233D-02 0.142D-01
 Coeff:      0.596D-02-0.211D+00 0.143D+00 0.105D+01
 Gap=     0.500 Goal=   None    Shift=    0.000
 RMSDP=1.24D-07 MaxDP=3.07D-06 DE=-2.42D-09 OVMax= 9.88D-06

 Cycle  11  Pass 1  IDiag  1:
 E= -389.155210554701     Delta-E=       -0.000000000320 Rises=F Damp=F
 DIIS: error= 1.55D-07 at cycle  11 NSaved=  11.
 NSaved=11 IEnMin=11 EnMin= -389.155210554701     IErMin=11 ErrMin= 1.55D-07
 ErrMax= 1.55D-07  0.00D+00 EMaxC= 1.00D-01 BMatC= 9.53D-12 BMatP= 1.21D-10
 IDIUse=1 WtCom= 1.00D+00 WtEn= 0.00D+00
 Coeff-Com:  0.393D-06 0.843D-06 0.104D-05-0.149D-03-0.305D-03 0.277D-02
 Coeff-Com:  0.110D-01-0.153D-01-0.107D+00 0.164D+00 0.945D+00
 Coeff:      0.393D-06 0.843D-06 0.104D-05-0.149D-03-0.305D-03 0.277D-02
 Coeff:      0.110D-01-0.153D-01-0.107D+00 0.164D+00 0.945D+00
 Gap=     0.500 Goal=   None    Shift=    0.000
 RMSDP=2.76D-08 MaxDP=1.16D-06 DE=-3.20D-10 OVMax= 2.51D-06

 Cycle  12  Pass 1  IDiag  1:
 E= -389.155210554714     Delta-E=       -0.000000000012 Rises=F Damp=F
 DIIS: error= 3.64D-08 at cycle  12 NSaved=  12.
 NSaved=12 IEnMin=12 EnMin= -389.155210554714     IErMin=12 ErrMin= 3.64D-08
 ErrMax= 3.64D-08  0.00D+00 EMaxC= 1.00D-01 BMatC= 1.17D-12 BMatP= 9.53D-12
 IDIUse=1 WtCom= 1.00D+00 WtEn= 0.00D+00
 Coeff-Com: -0.102D-05 0.547D-05 0.429D-04 0.323D-05-0.342D-03-0.126D-02
 Coeff-Com:  0.367D-03 0.217D-01-0.321D-01-0.113D+00 0.984D-01 0.103D+01
 Coeff:     -0.102D-05 0.547D-05 0.429D-04 0.323D-05-0.342D-03-0.126D-02
 Coeff:      0.367D-03 0.217D-01-0.321D-01-0.113D+00 0.984D-01 0.103D+01
 Gap=     0.500 Goal=   None    Shift=    0.000
 RMSDP=1.18D-08 MaxDP=3.33D-07 DE=-1.23D-11 OVMax= 8.46D-07

 Cycle  13  Pass 1  IDiag  1:
 E= -389.155210554719     Delta-E=       -0.000000000006 Rises=F Damp=F
 DIIS: error= 1.06D-08 at cycle  13 NSaved=  13.
 NSaved=13 IEnMin=13 EnMin= -389.155210554719     IErMin=13 ErrMin= 1.06D-08
 ErrMax= 1.06D-08  0.00D+00 EMaxC= 1.00D-01 BMatC= 5.47D-14 BMatP= 1.17D-12
 IDIUse=1 WtCom= 1.00D+00 WtEn= 0.00D+00
 Coeff-Com: -0.122D-06 0.462D-06 0.389D-05 0.136D-04-0.170D-04-0.298D-03
 Coeff-Com: -0.849D-03 0.352D-02 0.516D-02-0.213D-01-0.612D-01 0.111D+00
 Coeff-Com:  0.964D+00
 Coeff:     -0.122D-06 0.462D-06 0.389D-05 0.136D-04-0.170D-04-0.298D-03
 Coeff:     -0.849D-03 0.352D-02 0.516D-02-0.213D-01-0.612D-01 0.111D+00
 Coeff:      0.964D+00
 Gap=     0.500 Goal=   None    Shift=    0.000
 RMSDP=2.13D-09 MaxDP=7.02D-08 DE=-5.68D-12 OVMax= 1.05D-07

 SCF Done:  E(RHF) =  -389.155210555     A.U. after   13 cycles
            NFock= 13  Conv=0.21D-08     -V/T= 2.0014
 KE= 3.886259590309D+02 PE=-1.937501205338D+03 EE= 6.432863984459D+02
 Leave Link  502 at Fri Sep 17 13:33:31 2021, MaxMem=   524288000 cpu:              41.2 elap:              41.5
 (Enter /opt/gaussian/g16_legacy/l801.exe)
 ExpMin= 1.61D-01 ExpMax= 3.05D+03 ExpMxC= 4.57D+02 IAcc=3 IRadAn=         5 AccDes= 0.00D+00
 HarFok:  IExCor=  205 AccDes= 0.00D+00 IRadAn=         5 IDoV=-2 UseB2=F ITyADJ=14
 ICtDFT= 12500011 ScaDFX=  1.000000  1.000000  1.000000  1.000000
 Largest valence mixing into a core orbital is  1.98D-04
 Largest core mixing into a valence orbital is  3.52D-05
 Range of M.O.s used for correlation:    11   240
 NBasis=   240 NAE=    39 NBE=    39 NFC=    10 NFV=     0
 NROrb=    230 NOA=    29 NOB=    29 NVA=   201 NVB=   201
 Leave Link  801 at Fri Sep 17 13:33:32 2021, MaxMem=   524288000 cpu:               1.6 elap:               1.6
 (Enter /opt/gaussian/g16_legacy/l906.exe)
 Frozen-core derivative calculation, NFC=  10 NFV=   0.
 FulOut=F Deriv=T AODrv=T NAtomX=    28
   MMem=          88  MDisk=          29 MDiskD=          29
  W3Min=     2246400 MinDsk=     2795480 NBas6D=         240
 NBas2D=       29244    NTT=       28920    LW2=     2040000
    MDV=   523626386 MDiskM=       30186 NBas2p=       24383
 Fully direct method using O(ONN) memory.
 IMap=   1   2   3   4   5   6   7   8   9  10  11  12  13  14  15  16  17  18  19  20
 IMap=  21  22  23  24  25  26  27  28  29  30  31  32  33  34  35  36  37  38  39
 JobTyp=1 Pass  1:  I=  11 to  39 NPSUse=  1 ParTrn=F ParDer=F DoDerP=T.
 Spin components of T(2) and E(2):
     alpha-alpha T2 =       0.5715119069D-01 E2=     -0.1638019487D+00
     alpha-beta  T2 =       0.3618142176D+00 E2=     -0.1089336105D+01
     beta-beta   T2 =       0.5715119069D-01 E2=     -0.1638019487D+00
 The integrals were generated   1 times.
 ANorm=    0.1214955390D+01
 E2 =    -0.1416940002D+01 EUMP2 =    -0.39057215055702D+03
 Leave Link  906 at Fri Sep 17 13:38:32 2021, MaxMem=   524288000 cpu:             299.6 elap:             299.6
 (Enter /opt/gaussian/g16_legacy/l1002.exe)
 Minotr:  Closed shell wavefunction.
          Computing MP2/KS-MP2 derivatives.
          Using Z-Vector for PSCF gradient.
          Skipping F1 and S1 gradient terms here.
          IDoAtm=1111111111111111111111111111
          Frozen-core window.
          Direct CPHF calculation.
          Differentiating once with respect to electric field.
                with respect to dipole field.
          Differentiating once with respect to nuclear coordinates.
          Requested convergence is 1.0D-10 RMS, and 1.0D-09 maximum.
          NewPWx=F KeepS1=T KeepF1=T KeepIn=T MapXYZ=F SortEE=F KeepMc=T.
 Keep R1 ints in memory in canonical form, NReq=425201067.
 FoFCou: FMM=F IPFlag=           0 FMFlag=           0 FMFlg1=           0
         NFxFlg=           0 DoJE=F BraDBF=F KetDBF=F FulRan=T
         wScrn=  0.000000 ICntrl=       600 IOpCl=  0 I1Cent=           0 NGrid=           0
         NMat0=    1 NMatS0=  28920 NMatT0=    0 NMatD0=    1 NMtDS0=    0 NMtDT0=    0
 Symmetry not used in FoFCou.
 Two-electron integral symmetry not used.
          MDV=     524288000 using IRadAn=       5.
          Solving linear equations separately, MaxMat=       0.
          There are     1 degrees of freedom in the 1st order CPHF.  IDoFFX=0 NUNeed=     1.
 LinEq1:  Iter=  0 NonCon=     1 RMS=2.55D-03 Max=3.76D-02 NDo=     1
 AX will form     1 AO Fock derivatives at one time.
 LinEq1:  Iter=  1 NonCon=     1 RMS=6.90D-04 Max=9.74D-03 NDo=     1
 LinEq1:  Iter=  2 NonCon=     1 RMS=1.61D-04 Max=4.14D-03 NDo=     1
 LinEq1:  Iter=  3 NonCon=     1 RMS=4.31D-05 Max=5.08D-04 NDo=     1
 LinEq1:  Iter=  4 NonCon=     1 RMS=1.99D-05 Max=8.55D-04 NDo=     1
 LinEq1:  Iter=  5 NonCon=     1 RMS=5.06D-06 Max=8.26D-05 NDo=     1
 LinEq1:  Iter=  6 NonCon=     1 RMS=1.63D-06 Max=2.68D-05 NDo=     1
 LinEq1:  Iter=  7 NonCon=     1 RMS=4.13D-07 Max=4.19D-06 NDo=     1
 LinEq1:  Iter=  8 NonCon=     1 RMS=1.01D-07 Max=1.86D-06 NDo=     1
 LinEq1:  Iter=  9 NonCon=     1 RMS=2.33D-08 Max=6.32D-07 NDo=     1
 LinEq1:  Iter= 10 NonCon=     1 RMS=6.42D-09 Max=1.62D-07 NDo=     1
 LinEq1:  Iter= 11 NonCon=     1 RMS=1.89D-09 Max=3.63D-08 NDo=     1
 LinEq1:  Iter= 12 NonCon=     1 RMS=4.14D-10 Max=7.59D-09 NDo=     1
 LinEq1:  Iter= 13 NonCon=     1 RMS=1.06D-10 Max=9.18D-10 NDo=     1
 LinEq1:  Iter= 14 NonCon=     1 RMS=4.26D-11 Max=1.55D-09 NDo=     1
 LinEq1:  Iter= 15 NonCon=     0 RMS=1.31D-11 Max=1.82D-10 NDo=     1
 Linear equations converged to 1.000D-10 1.000D-09 after    15 iterations.
 End of Minotr F.D. properties file   721 does not exist.
 End of Minotr F.D. properties file   722 does not exist.
 End of Minotr F.D. properties file   788 does not exist.
 Leave Link 1002 at Fri Sep 17 13:39:20 2021, MaxMem=   524288000 cpu:              47.7 elap:              47.8
 (Enter /opt/gaussian/g16_legacy/l601.exe)
 Copying SCF densities to generalized density rwf, IOpCl= 0 IROHF=0.

 **********************************************************************

            Population analysis using the SCF density.

 **********************************************************************

 Orbital symmetries:
       Occupied  (A) (A) (A) (A) (A) (A) (A) (A) (A) (A) (A) (A)
                 (A) (A) (A) (A) (A) (A) (A) (A) (A) (A) (A) (A)
                 (A) (A) (A) (A) (A) (A) (A) (A) (A) (A) (A) (A)
                 (A) (A) (A)
       Virtual   (A) (A) (A) (A) (A) (A) (A) (A) (A) (A) (A) (A)
                 (A) (A) (A) (A) (A) (A) (A) (A) (A) (A) (A) (A)
                 (A) (A) (A) (A) (A) (A) (A) (A) (A) (A) (A) (A)
                 (A) (A) (A) (A) (A) (A) (A) (A) (A) (A) (A) (A)
                 (A) (A) (A) (A) (A) (A) (A) (A) (A) (A) (A) (A)
                 (A) (A) (A) (A) (A) (A) (A) (A) (A) (A) (A) (A)
                 (A) (A) (A) (A) (A) (A) (A) (A) (A) (A) (A) (A)
                 (A) (A) (A) (A) (A) (A) (A) (A) (A) (A) (A) (A)
                 (A) (A) (A) (A) (A) (A) (A) (A) (A) (A) (A) (A)
                 (A) (A) (A) (A) (A) (A) (A) (A) (A) (A) (A) (A)
                 (A) (A) (A) (A) (A) (A) (A) (A) (A) (A) (A) (A)
                 (A) (A) (A) (A) (A) (A) (A) (A) (A) (A) (A) (A)
                 (A) (A) (A) (A) (A) (A) (A) (A) (A) (A) (A) (A)
                 (A) (A) (A) (A) (A) (A) (A) (A) (A) (A) (A) (A)
                 (A) (A) (A) (A) (A) (A) (A) (A) (A) (A) (A) (A)
                 (A) (A) (A) (A) (A) (A) (A) (A) (A) (A) (A) (A)
                 (A) (A) (A) (A) (A) (A) (A) (A) (A)
 The electronic state is 1-A.
 Alpha  occ. eigenvalues --  -11.23060 -11.22505 -11.21999 -11.21921 -11.21883
 Alpha  occ. eigenvalues --  -11.21650 -11.21553 -11.21485 -11.21456 -11.21438
 Alpha  occ. eigenvalues --   -1.10623  -1.08326  -1.01911  -0.98013  -0.93647
 Alpha  occ. eigenvalues --   -0.91774  -0.86755  -0.82686  -0.70599  -0.69342
 Alpha  occ. eigenvalues --   -0.64585  -0.61545  -0.60101  -0.59030  -0.58087
 Alpha  occ. eigenvalues --   -0.56804  -0.55368  -0.55150  -0.53548  -0.51981
 Alpha  occ. eigenvalues --   -0.51716  -0.51322  -0.50591  -0.49229  -0.48276
 Alpha  occ. eigenvalues --   -0.46015  -0.44271  -0.33356  -0.31525
 Alpha virt. eigenvalues --    0.18456   0.19494   0.22038   0.24454   0.25183
 Alpha virt. eigenvalues --    0.27142   0.28395   0.28932   0.30250   0.30504
 Alpha virt. eigenvalues --    0.31238   0.32117   0.33135   0.33435   0.34031
 Alpha virt. eigenvalues --    0.35677   0.35774   0.36970   0.38998   0.40647
 Alpha virt. eigenvalues --    0.41063   0.42592   0.43321   0.44192   0.45149
 Alpha virt. eigenvalues --    0.51683   0.54045   0.61171   0.62445   0.70138
 Alpha virt. eigenvalues --    0.71102   0.71887   0.74279   0.76417   0.76615
 Alpha virt. eigenvalues --    0.76877   0.78796   0.79454   0.81139   0.82036
 Alpha virt. eigenvalues --    0.83812   0.85654   0.88079   0.91265   0.92027
 Alpha virt. eigenvalues --    0.92895   0.95177   0.97057   0.98262   0.99206
 Alpha virt. eigenvalues --    0.99750   1.00202   1.02302   1.03925   1.06181
 Alpha virt. eigenvalues --    1.07864   1.08640   1.08809   1.11199   1.12391
 Alpha virt. eigenvalues --    1.12561   1.13432   1.14584   1.14927   1.15820
 Alpha virt. eigenvalues --    1.16164   1.16403   1.18223   1.18705   1.20092
 Alpha virt. eigenvalues --    1.20662   1.22068   1.22854   1.25020   1.27540
 Alpha virt. eigenvalues --    1.34171   1.40671   1.41850   1.43738   1.45172
 Alpha virt. eigenvalues --    1.47557   1.53475   1.56254   1.56978   1.58247
 Alpha virt. eigenvalues --    1.59850   1.62720   1.65796   1.69519   1.70789
 Alpha virt. eigenvalues --    1.75330   1.82527   1.92035   1.92195   1.95497
 Alpha virt. eigenvalues --    1.98627   2.01128   2.02848   2.04182   2.08700
 Alpha virt. eigenvalues --    2.09240   2.11122   2.11378   2.13103   2.14507
 Alpha virt. eigenvalues --    2.15427   2.17690   2.19725   2.23577   2.27384
 Alpha virt. eigenvalues --    2.28340   2.29991   2.32198   2.34975   2.35567
 Alpha virt. eigenvalues --    2.35646   2.35782   2.39326   2.39848   2.40350
 Alpha virt. eigenvalues --    2.41283   2.41825   2.43035   2.45162   2.45390
 Alpha virt. eigenvalues --    2.47034   2.48341   2.49338   2.50339   2.54527
 Alpha virt. eigenvalues --    2.56587   2.57723   2.61276   2.62185   2.64354
 Alpha virt. eigenvalues --    2.66341   2.67158   2.72033   2.72993   2.73746
 Alpha virt. eigenvalues --    2.75717   2.77700   2.81091   2.82805   2.85159
 Alpha virt. eigenvalues --    2.87730   2.89153   2.91918   2.93444   2.94437
 Alpha virt. eigenvalues --    2.97094   2.99036   3.01163   3.02600   3.05099
 Alpha virt. eigenvalues --    3.05825   3.06632   3.08507   3.13015   3.15940
 Alpha virt. eigenvalues --    3.17138   3.18163   3.19614   3.20682   3.21268
 Alpha virt. eigenvalues --    3.23190   3.24413   3.26463   3.27246   3.36666
 Alpha virt. eigenvalues --    3.39072   3.44606   3.45619   3.55551   3.57292
 Alpha virt. eigenvalues --    3.58697   3.61059   3.66897   3.73958   3.78202
 Alpha virt. eigenvalues --    3.78870   3.80511   3.81327   3.82333   3.82837
 Alpha virt. eigenvalues --    3.84210   3.85750   3.87659   3.89513   3.91175
 Alpha virt. eigenvalues --    3.95900   4.59094   4.62634   4.74428   4.82816
 Alpha virt. eigenvalues --    4.88836   4.92668   4.93352   5.07549   5.10288
 Alpha virt. eigenvalues --    5.16868
          Condensed to atoms (all electrons):
               1          2          3          4          5          6
     1  C    5.001799   0.412352   0.413509   0.340283  -0.058748  -0.000532
     2  H    0.412352   0.571668  -0.030227  -0.040529   0.003238  -0.000030
     3  H    0.413509  -0.030227   0.588496  -0.045056  -0.004691  -0.000275
     4  C    0.340283  -0.040529  -0.045056   4.955074   0.349334  -0.045813
     5  C   -0.058748   0.003238  -0.004691   0.349334   4.896467   0.400282
     6  H   -0.000532  -0.000030  -0.000275  -0.045813   0.400282   0.594774
     7  H   -0.003553  -0.000016   0.002570  -0.043058   0.397385  -0.035012
     8  H    0.003676  -0.000103   0.000081  -0.041411   0.406172  -0.028080
     9  C   -0.044045  -0.002232   0.001918   0.698844  -0.045933  -0.001034
    10  H    0.003079   0.000060  -0.000114  -0.036532  -0.006482   0.000123
    11  C   -0.007062  -0.002134   0.000138  -0.050685   0.003424  -0.000100
    12  H    0.000227   0.000172   0.000028  -0.001413  -0.000116  -0.000005
    13  H    0.000232  -0.000034  -0.000010   0.000594  -0.000100   0.000015
    14  H   -0.001828  -0.001334   0.000004  -0.000418   0.000092   0.000000
    15  C    0.000597   0.000160  -0.000016  -0.000017  -0.000000  -0.000000
    16  H    0.000077  -0.000076  -0.000001  -0.000002   0.000000   0.000000
    17  H   -0.000041   0.000014   0.000000   0.000001  -0.000000   0.000000
    18  H   -0.000053  -0.000052  -0.000012  -0.000027  -0.000000   0.000000
    19  C   -0.003607   0.001046   0.000615   0.000006  -0.000002   0.000000
    20  C   -0.000101  -0.000042  -0.000000   0.000002  -0.000000  -0.000000
    21  H   -0.000003  -0.000002   0.000002   0.000000  -0.000000  -0.000000
    22  H   -0.000004   0.000001   0.000000   0.000000  -0.000000   0.000000
    23  H    0.000022  -0.000005  -0.000001  -0.000000   0.000000   0.000000
    24  C   -0.063068  -0.000807  -0.000609   0.006130  -0.000158  -0.000086
    25  H    0.000005   0.000213   0.001003  -0.000155   0.000010   0.000012
    26  C    0.326231  -0.039846  -0.044596  -0.057366  -0.000187   0.000810
    27  H   -0.040289  -0.002144   0.004202  -0.001438   0.000317  -0.000009
    28  H   -0.045128   0.004290  -0.002604  -0.001851  -0.000392  -0.000187
               7          8          9         10         11         12
     1  C   -0.003553   0.003676  -0.044045   0.003079  -0.007062   0.000227
     2  H   -0.000016  -0.000103  -0.002232   0.000060  -0.002134   0.000172
     3  H    0.002570   0.000081   0.001918  -0.000114   0.000138   0.000028
     4  C   -0.043058  -0.041411   0.698844  -0.036532  -0.050685  -0.001413
     5  C    0.397385   0.406172  -0.045933  -0.006482   0.003424  -0.000116
     6  H   -0.035012  -0.028080  -0.001034   0.000123  -0.000100  -0.000005
     7  H    0.593604  -0.027616  -0.000426   0.000248  -0.000114   0.000021
     8  H   -0.027616   0.571066  -0.002737   0.002222   0.000137  -0.000004
     9  C   -0.000426  -0.002737   4.939960   0.404876   0.337723  -0.044356
    10  H    0.000248   0.002222   0.404876   0.559346  -0.043633  -0.000222
    11  C   -0.000114   0.000137   0.337723  -0.043633   4.906205   0.400027
    12  H    0.000021  -0.000004  -0.044356  -0.000222   0.400027   0.584249
    13  H   -0.000004  -0.000009  -0.042843  -0.002646   0.403005  -0.033269
    14  H   -0.000001   0.000004  -0.041937   0.003315   0.408019  -0.026860
    15  C   -0.000000  -0.000000   0.000010  -0.000000  -0.000097   0.000002
    16  H   -0.000000  -0.000000   0.000000  -0.000000  -0.000003  -0.000000
    17  H    0.000000   0.000000   0.000000   0.000000   0.000002   0.000000
    18  H   -0.000000   0.000000  -0.000032   0.000000   0.000040  -0.000008
    19  C    0.000000   0.000000   0.000001   0.000000   0.000007  -0.000000
    20  C   -0.000000   0.000000  -0.000000   0.000000  -0.000000   0.000000
    21  H   -0.000000   0.000000  -0.000000   0.000000   0.000000  -0.000000
    22  H    0.000000   0.000000   0.000000   0.000000  -0.000000   0.000000
    23  H   -0.000000  -0.000000  -0.000000  -0.000000   0.000000  -0.000000
    24  C    0.000001   0.000003   0.000070   0.000002  -0.000032   0.000002
    25  H   -0.000002  -0.000000  -0.000002  -0.000000   0.000000   0.000000
    26  C    0.000027  -0.000097  -0.004365  -0.000116   0.000690  -0.000050
    27  H    0.000012  -0.000010   0.001215  -0.000044   0.000070   0.000023
    28  H    0.000093  -0.000025   0.000514   0.000004  -0.000030  -0.000000
              13         14         15         16         17         18
     1  C    0.000232  -0.001828   0.000597   0.000077  -0.000041  -0.000053
     2  H   -0.000034  -0.001334   0.000160  -0.000076   0.000014  -0.000052
     3  H   -0.000010   0.000004  -0.000016  -0.000001   0.000000  -0.000012
     4  C    0.000594  -0.000418  -0.000017  -0.000002   0.000001  -0.000027
     5  C   -0.000100   0.000092  -0.000000   0.000000  -0.000000  -0.000000
     6  H    0.000015   0.000000  -0.000000   0.000000   0.000000   0.000000
     7  H   -0.000004  -0.000001  -0.000000  -0.000000   0.000000  -0.000000
     8  H   -0.000009   0.000004  -0.000000  -0.000000   0.000000   0.000000
     9  C   -0.042843  -0.041937   0.000010   0.000000   0.000000  -0.000032
    10  H   -0.002646   0.003315  -0.000000  -0.000000   0.000000   0.000000
    11  C    0.403005   0.408019  -0.000097  -0.000003   0.000002   0.000040
    12  H   -0.033269  -0.026860   0.000002  -0.000000   0.000000  -0.000008
    13  H    0.586782  -0.030012  -0.000004   0.000000  -0.000000   0.000042
    14  H   -0.030012   0.573896   0.000010   0.000034  -0.000006   0.000571
    15  C   -0.000004   0.000010   4.909198   0.402451   0.398266   0.406153
    16  H    0.000000   0.000034   0.402451   0.586165  -0.033092  -0.030010
    17  H   -0.000000  -0.000006   0.398266  -0.033092   0.582552  -0.026277
    18  H    0.000042   0.000571   0.406153  -0.030010  -0.026277   0.568167
    19  C    0.000000  -0.000013   0.348394  -0.043931  -0.043832  -0.037054
    20  C   -0.000000   0.000000  -0.065368  -0.003429  -0.001684   0.003677
    21  H   -0.000000  -0.000000   0.003694   0.000010  -0.000079  -0.000108
    22  H   -0.000000  -0.000000  -0.001105  -0.000507   0.002553  -0.000023
    23  H    0.000000  -0.000000  -0.002139   0.002847  -0.000371  -0.000072
    24  C   -0.000004   0.000003  -0.043319   0.000448  -0.000842  -0.002870
    25  H    0.000000  -0.000001   0.003365  -0.000110  -0.000126   0.000059
    26  C    0.000091  -0.000212  -0.007532   0.000286   0.000188  -0.001944
    27  H   -0.000079  -0.000251  -0.002064  -0.000043   0.000056  -0.001169
    28  H    0.000000  -0.000008   0.000169  -0.000012   0.000032   0.000031
              19         20         21         22         23         24
     1  C   -0.003607  -0.000101  -0.000003  -0.000004   0.000022  -0.063068
     2  H    0.001046  -0.000042  -0.000002   0.000001  -0.000005  -0.000807
     3  H    0.000615  -0.000000   0.000002   0.000000  -0.000001  -0.000609
     4  C    0.000006   0.000002   0.000000   0.000000  -0.000000   0.006130
     5  C   -0.000002  -0.000000  -0.000000  -0.000000   0.000000  -0.000158
     6  H    0.000000  -0.000000  -0.000000   0.000000   0.000000  -0.000086
     7  H    0.000000  -0.000000  -0.000000   0.000000  -0.000000   0.000001
     8  H    0.000000   0.000000   0.000000   0.000000  -0.000000   0.000003
     9  C    0.000001  -0.000000  -0.000000   0.000000  -0.000000   0.000070
    10  H    0.000000   0.000000   0.000000   0.000000  -0.000000   0.000002
    11  C    0.000007  -0.000000   0.000000  -0.000000   0.000000  -0.000032
    12  H   -0.000000   0.000000  -0.000000   0.000000  -0.000000   0.000002
    13  H    0.000000  -0.000000  -0.000000  -0.000000   0.000000  -0.000004
    14  H   -0.000013   0.000000  -0.000000  -0.000000  -0.000000   0.000003
    15  C    0.348394  -0.065368   0.003694  -0.001105  -0.002139  -0.043319
    16  H   -0.043931  -0.003429   0.000010  -0.000507   0.002847   0.000448
    17  H   -0.043832  -0.001684  -0.000079   0.002553  -0.000371  -0.000842
    18  H   -0.037054   0.003677  -0.000108  -0.000023  -0.000072  -0.002870
    19  C    4.918252   0.352281  -0.040392  -0.045772  -0.044302   0.698167
    20  C    0.352281   4.903242   0.405432   0.399259   0.396985  -0.044868
    21  H   -0.040392   0.405432   0.568007  -0.027561  -0.027367  -0.002386
    22  H   -0.045772   0.399259  -0.027561   0.593095  -0.034906  -0.001135
    23  H   -0.044302   0.396985  -0.027367  -0.034906   0.594320  -0.000548
    24  C    0.698167  -0.044868  -0.002386  -0.001135  -0.000548   4.961536
    25  H   -0.036144  -0.006750   0.002176   0.000150   0.000235   0.402014
    26  C   -0.048264   0.003152   0.000146  -0.000124  -0.000086   0.339927
    27  H    0.000822   0.000071   0.000006   0.000004  -0.000004  -0.043811
    28  H    0.000914  -0.000102  -0.000011   0.000012  -0.000002  -0.043341
              25         26         27         28
     1  C    0.000005   0.326231  -0.040289  -0.045128
     2  H    0.000213  -0.039846  -0.002144   0.004290
     3  H    0.001003  -0.044596   0.004202  -0.002604
     4  C   -0.000155  -0.057366  -0.001438  -0.001851
     5  C    0.000010  -0.000187   0.000317  -0.000392
     6  H    0.000012   0.000810  -0.000009  -0.000187
     7  H   -0.000002   0.000027   0.000012   0.000093
     8  H   -0.000000  -0.000097  -0.000010  -0.000025
     9  C   -0.000002  -0.004365   0.001215   0.000514
    10  H   -0.000000  -0.000116  -0.000044   0.000004
    11  C    0.000000   0.000690   0.000070  -0.000030
    12  H    0.000000  -0.000050   0.000023  -0.000000
    13  H    0.000000   0.000091  -0.000079   0.000000
    14  H   -0.000001  -0.000212  -0.000251  -0.000008
    15  C    0.003365  -0.007532  -0.002064   0.000169
    16  H   -0.000110   0.000286  -0.000043  -0.000012
    17  H   -0.000126   0.000188   0.000056   0.000032
    18  H    0.000059  -0.001944  -0.001169   0.000031
    19  C   -0.036144  -0.048264   0.000822   0.000914
    20  C   -0.006750   0.003152   0.000071  -0.000102
    21  H    0.002176   0.000146   0.000006  -0.000011
    22  H    0.000150  -0.000124   0.000004   0.000012
    23  H    0.000235  -0.000086  -0.000004  -0.000002
    24  C    0.402014   0.339927  -0.043811  -0.043341
    25  H    0.558522  -0.041267   0.003230  -0.003484
    26  C   -0.041267   4.982269   0.414880   0.413778
    27  H    0.003230   0.414880   0.571215  -0.029601
    28  H   -0.003484   0.413778  -0.029601   0.588459
 Mulliken charges:
               1
     1  C   -0.234027
     2  H    0.126400
     3  H    0.115648
     4  C    0.015504
     5  C   -0.339910
     6  H    0.115147
     7  H    0.115841
     8  H    0.116729
     9  C   -0.155190
    10  H    0.116512
    11  C   -0.355599
    12  H    0.121552
    13  H    0.118251
    14  H    0.116933
    15  C   -0.350806
    16  H    0.118899
    17  H    0.122687
    18  H    0.120970
    19  C    0.022808
    20  C   -0.341758
    21  H    0.118434
    22  H    0.116063
    23  H    0.115395
    24  C   -0.160420
    25  H    0.117047
    26  C   -0.236425
    27  H    0.124832
    28  H    0.118482
 Sum of Mulliken charges =  -0.00000
 Mulliken charges with hydrogens summed into heavy atoms:
               1
     1  C    0.008020
     4  C    0.015504
     5  C    0.007808
     9  C   -0.038678
    11  C    0.001137
    15  C    0.011751
    19  C    0.022808
    20  C    0.008134
    24  C   -0.043374
    26  C    0.006889
 Electronic spatial extent (au):  <R**2>=           2423.6593
 Charge=             -0.0000 electrons
 Dipole moment (field-independent basis, Debye):
    X=              0.2947    Y=              0.1262    Z=             -0.0058  Tot=              0.3207
 Quadrupole moment (field-independent basis, Debye-Ang):
   XX=            -64.5128   YY=            -63.6028   ZZ=            -67.0537
   XY=              0.6110   XZ=              0.8623   YZ=             -0.4854
 Traceless Quadrupole moment (field-independent basis, Debye-Ang):
   XX=              0.5436   YY=              1.4536   ZZ=             -1.9973
   XY=              0.6110   XZ=              0.8623   YZ=             -0.4854
 Octapole moment (field-independent basis, Debye-Ang**2):
  XXX=              1.3639  YYY=             -2.7223  ZZZ=              0.1850  XYY=             -0.5709
  XXY=              4.5335  XXZ=             -2.6484  XZZ=              1.5753  YZZ=              1.2281
  YYZ=              1.3711  XYZ=             -0.7513
 Hexadecapole moment (field-independent basis, Debye-Ang**3):
 XXXX=          -2492.3180 YYYY=           -696.1207 ZZZZ=           -174.8265 XXXY=             -2.3413
 XXXZ=             11.9291 YYYX=             -9.3498 YYYZ=             -3.0540 ZZZX=             -0.8386
 ZZZY=             -0.0639 XXYY=           -530.4645 XXZZ=           -456.3165 YYZZ=           -139.1726
 XXYZ=             -4.2445 YYXZ=              3.1993 ZZXY=              4.6981
 N-N= 5.164336373064D+02 E-N=-1.937501205450D+03  KE= 3.886259590309D+02
 No NMR shielding tensors so no spin-rotation constants.
 Leave Link  601 at Fri Sep 17 13:39:20 2021, MaxMem=   524288000 cpu:               0.3 elap:               0.3
 (Enter /opt/gaussian/g16_legacy/l701.exe)
 ... and contract with generalized density number  2.
 Compute integral first derivatives.
 Leave Link  701 at Fri Sep 17 13:39:20 2021, MaxMem=   524288000 cpu:               0.3 elap:               0.3
 (Enter /opt/gaussian/g16_legacy/l702.exe)
 L702 exits ... SP integral derivatives will be done elsewhere.
 Leave Link  702 at Fri Sep 17 13:39:21 2021, MaxMem=   524288000 cpu:               0.1 elap:               0.1
 (Enter /opt/gaussian/g16_legacy/l703.exe)
 Integral derivatives from FoFJK, PRISM(SPDF).
 Compute integral first derivatives, UseDBF=F ICtDFT=           0.
 Calling FoFJK, ICntrl=  10002127 FMM=F ISym2X=0 I1Cent= 0 IOpClX= 0 NMat=1 NMatS=1 NMatT=0.
 FoFJK:  IHMeth= 1 ICntrl=10002127 DoSepK=F KAlg= 0 I1Cent=           0 FoldK=F
 IRaf=         0 NMat=       1 IRICut=       1 DoRegI=T DoRafI=F ISym2E= 0 IDoP0=0 IntGTp=1.
 FoFCou: FMM=F IPFlag=           0 FMFlag=      100000 FMFlg1=         800
         NFxFlg=           0 DoJE=F BraDBF=F KetDBF=F FulRan=T
         wScrn=  0.000000 ICntrl=  10002127 IOpCl=  0 I1Cent=           0 NGrid=           0
         NMat0=    1 NMatS0=      1 NMatT0=    0 NMatD0=    1 NMtDS0=    0 NMtDT0=    0
 Symmetry not used in FoFCou.
 Leave Link  703 at Fri Sep 17 13:39:54 2021, MaxMem=   524288000 cpu:              33.4 elap:              33.4
 (Enter /opt/gaussian/g16_legacy/l716.exe)
 Dipole        = 9.10825186D-02 6.68915268D-02-4.72173012D-03
 ***** Axes restored to original set *****
 -------------------------------------------------------------------
 Center     Atomic                   Forces (Hartrees/Bohr)
 Number     Number              X              Y              Z
 -------------------------------------------------------------------
      1        6          -0.008565601   -0.001962529    0.003616921
      2        1           0.002351108    0.003907163    0.001015023
      3        1           0.001524864    0.002597692    0.002346168
      4        6          -0.005456154   -0.001435837   -0.003133584
      5        6          -0.002246555    0.001902849    0.001381287
      6        1          -0.001610967   -0.001553551   -0.002536518
      7        1           0.002438060    0.002206824    0.000660465
      8        1           0.003195415   -0.002579425    0.000381610
      9        6           0.002951102    0.002175325   -0.000818636
     10        1           0.002246729    0.000182869   -0.002742514
     11        6           0.001528211   -0.001677517    0.001431155
     12        1           0.002131862    0.000269578    0.002694139
     13        1          -0.001291084   -0.002955399   -0.001247461
     14        1          -0.002788283    0.001367984   -0.001268755
     15        6          -0.003528429    0.002013804    0.002029598
     16        1           0.002653083    0.002475354   -0.000186026
     17        1          -0.001229648   -0.002902722    0.000333651
     18        1           0.002491101    0.000343510   -0.002354363
     19        6          -0.001790430   -0.001105288   -0.004913900
     20        6          -0.000324026    0.000288820   -0.003325249
     21        1          -0.001668696    0.000508381    0.003960955
     22        1          -0.001335333   -0.003088969   -0.000123058
     23        1           0.002847154    0.001798013    0.001078643
     24        6           0.000711379    0.005098710    0.001093429
     25        1           0.001300234   -0.002354639    0.002106496
     26        6           0.007931664   -0.000680193   -0.000078962
     27        1          -0.001871691   -0.002810507   -0.002136758
     28        1          -0.002595069   -0.002030299    0.000736246
 -------------------------------------------------------------------
 Cartesian Forces:  Max     0.008565601 RMS     0.002572490
 Leave Link  716 at Fri Sep 17 13:39:54 2021, MaxMem=   524288000 cpu:               0.1 elap:               0.1
 (Enter /opt/gaussian/g16_legacy/l103.exe)

 GradGradGradGradGradGradGradGradGradGradGradGradGradGradGradGradGradGrad
 Berny optimization.
 FormGI is forming the generalized inverse of G from B-inverse, IUseBI=4.
 GSVD:  received Info=                   1 from GESDD.
 Internal  Forces:  Max     0.004883220 RMS     0.001916772
 Search for a local minimum.
 Step number   1 out of a maximum of  138
 All quantities printed in internal units (Hartrees-Bohrs-Radians)
 RMS Force = .19168D-02 SwitMx=.10000D-02 MixMth= 1
 Mixed Optimization -- RFO/linear search
 Second derivative matrix not updated -- first step.
 ITU=  0
     Eigenvalues ---    0.00343   0.00569   0.00671   0.00680   0.00692
     Eigenvalues ---    0.00714   0.00817   0.01219   0.01286   0.01568
     Eigenvalues ---    0.01641   0.02780   0.02784   0.04018   0.04138
     Eigenvalues ---    0.05349   0.05399   0.06978   0.07035   0.07090
     Eigenvalues ---    0.07092   0.07268   0.07301   0.07347   0.07505
     Eigenvalues ---    0.09276   0.09361   0.12766   0.12842   0.15999
     Eigenvalues ---    0.15999   0.16000   0.16000   0.16000   0.16000
     Eigenvalues ---    0.16000   0.16000   0.16000   0.16000   0.16000
     Eigenvalues ---    0.16000   0.16000   0.16000   0.21859   0.21866
     Eigenvalues ---    0.22000   0.22000   0.24994   0.24997   0.24998
     Eigenvalues ---    0.24999   0.29239   0.30864   0.31636   0.31707
     Eigenvalues ---    0.31795   0.31967   0.32787   0.33864   0.33978
     Eigenvalues ---    0.34067   0.34203   0.34218   0.34233   0.34244
     Eigenvalues ---    0.34245   0.34256   0.34257   0.34259   0.34262
     Eigenvalues ---    0.34295   0.34333   0.34551   0.34556   0.34798
     Eigenvalues ---    0.34853   0.55500   0.55575
 RFO step:  Lambda=-2.96071663D-03 EMin= 3.42530668D-03
 Linear search not attempted -- first point.
 Iteration  1 RMS(Cart)=  0.03970906 RMS(Int)=  0.00072411
 Iteration  2 RMS(Cart)=  0.00093551 RMS(Int)=  0.00016641
 Iteration  3 RMS(Cart)=  0.00000043 RMS(Int)=  0.00016641
 ITry= 1 IFail=0 DXMaxC= 1.77D-01 DCOld= 1.00D+10 DXMaxT= 3.00D-01 DXLimC= 3.00D+00 Rises=F
 Variable       Old X    -DE/DX   Delta X   Delta X   Delta X     New X
                                 (Linear)    (Quad)   (Total)
    R1        2.07217  -0.00329   0.00000  -0.00958  -0.00958   2.06259
    R2        2.07560  -0.00280   0.00000  -0.00819  -0.00819   2.06742
    R3        2.86273  -0.00356   0.00000  -0.01142  -0.01142   2.85131
    R4        2.89508   0.00172   0.00000   0.00582   0.00582   2.90090
    R5        2.84816  -0.00044   0.00000  -0.00138  -0.00138   2.84677
    R6        2.54690  -0.00395   0.00000  -0.00708  -0.00708   2.53982
    R7        2.06835  -0.00180   0.00000  -0.00520  -0.00520   2.06315
    R8        2.06898  -0.00212   0.00000  -0.00613  -0.00613   2.06285
    R9        2.06964  -0.00373   0.00000  -0.01081  -0.01081   2.05883
   R10        2.05914  -0.00218   0.00000  -0.00622  -0.00622   2.05292
   R11        2.82726   0.00306   0.00000   0.00925   0.00925   2.83651
   R12        2.06771  -0.00159   0.00000  -0.00458  -0.00458   2.06313
   R13        2.06890  -0.00259   0.00000  -0.00750  -0.00750   2.06140
   R14        2.06402  -0.00289   0.00000  -0.00830  -0.00830   2.05572
   R15        2.06989  -0.00259   0.00000  -0.00752  -0.00752   2.06237
   R16        2.06895  -0.00190   0.00000  -0.00549  -0.00549   2.06346
   R17        2.06409  -0.00281   0.00000  -0.00807  -0.00807   2.05602
   R18        2.84204  -0.00050   0.00000  -0.00156  -0.00156   2.84048
   R19        2.84684  -0.00077   0.00000  -0.00242  -0.00242   2.84442
   R20        2.54625  -0.00325   0.00000  -0.00582  -0.00582   2.54043
   R21        2.06938  -0.00393   0.00000  -0.01139  -0.01139   2.05799
   R22        2.06920  -0.00201   0.00000  -0.00583  -0.00583   2.06337
   R23        2.06919  -0.00201   0.00000  -0.00583  -0.00583   2.06336
   R24        2.06005  -0.00198   0.00000  -0.00563  -0.00563   2.05441
   R25        2.84521  -0.00155   0.00000  -0.00483  -0.00483   2.84039
   R26        2.06900  -0.00272   0.00000  -0.00787  -0.00787   2.06113
   R27        2.07367  -0.00234   0.00000  -0.00684  -0.00684   2.06682
    A1        1.82997   0.00207   0.00000   0.02244   0.02227   1.85224
    A2        1.93010   0.00043   0.00000   0.00930   0.00933   1.93943
    A3        1.91845  -0.00278   0.00000  -0.02029  -0.02032   1.89813
    A4        1.90260  -0.00069   0.00000  -0.00270  -0.00270   1.89991
    A5        1.92006  -0.00195   0.00000  -0.01724  -0.01727   1.90279
    A6        1.95831   0.00284   0.00000   0.00916   0.00920   1.96751
    A7        2.00827   0.00238   0.00000   0.00970   0.00914   2.01740
    A8        2.17070  -0.00488   0.00000  -0.01894  -0.01947   2.15122
    A9        2.10404   0.00252   0.00000   0.01034   0.00977   2.11380
   A10        1.92804   0.00228   0.00000   0.01217   0.01220   1.94024
   A11        1.92493   0.00164   0.00000   0.00890   0.00892   1.93385
   A12        1.95928  -0.00262   0.00000  -0.01310  -0.01306   1.94622
   A13        1.89496  -0.00307   0.00000  -0.02471  -0.02470   1.87026
   A14        1.87697   0.00055   0.00000   0.00565   0.00569   1.88266
   A15        1.87749   0.00110   0.00000   0.01025   0.01028   1.88777
   A16        2.06968  -0.00193   0.00000  -0.01336  -0.01338   2.05631
   A17        2.22511  -0.00188   0.00000  -0.00838  -0.00839   2.21672
   A18        1.98825   0.00381   0.00000   0.02190   0.02189   2.01014
   A19        1.91720   0.00395   0.00000   0.02331   0.02328   1.94047
   A20        1.90997   0.00239   0.00000   0.01564   0.01559   1.92556
   A21        1.98124  -0.00299   0.00000  -0.01844  -0.01835   1.96289
   A22        1.88725  -0.00310   0.00000  -0.01892  -0.01910   1.86815
   A23        1.89281  -0.00095   0.00000  -0.00757  -0.00747   1.88534
   A24        1.87275   0.00052   0.00000   0.00490   0.00497   1.87772
   A25        1.89075  -0.00241   0.00000  -0.02167  -0.02165   1.86909
   A26        1.86379   0.00200   0.00000   0.01694   0.01695   1.88074
   A27        1.92076   0.00001   0.00000  -0.00086  -0.00084   1.91993
   A28        1.88440   0.00023   0.00000   0.00329   0.00331   1.88771
   A29        1.92150   0.00232   0.00000   0.01178   0.01180   1.93330
   A30        1.97976  -0.00223   0.00000  -0.01026  -0.01024   1.96952
   A31        1.99474   0.00145   0.00000   0.00576   0.00574   2.00048
   A32        2.18267  -0.00329   0.00000  -0.01298  -0.01300   2.16966
   A33        2.10573   0.00185   0.00000   0.00733   0.00731   2.11304
   A34        1.96061  -0.00277   0.00000  -0.01386  -0.01382   1.94680
   A35        1.92341   0.00175   0.00000   0.00881   0.00884   1.93225
   A36        1.92494   0.00220   0.00000   0.01234   0.01236   1.93730
   A37        1.87887   0.00091   0.00000   0.00788   0.00792   1.88679
   A38        1.87922   0.00092   0.00000   0.00934   0.00938   1.88860
   A39        1.89477  -0.00313   0.00000  -0.02535  -0.02535   1.86943
   A40        2.06715  -0.00167   0.00000  -0.01181  -0.01221   2.05494
   A41        2.22711  -0.00225   0.00000  -0.00992  -0.01033   2.21677
   A42        1.98880   0.00394   0.00000   0.02252   0.02210   2.01090
   A43        1.94442   0.00332   0.00000   0.01370   0.01373   1.95815
   A44        1.92606  -0.00264   0.00000  -0.02493  -0.02500   1.90106
   A45        1.92093  -0.00239   0.00000  -0.01480  -0.01500   1.90593
   A46        1.94654  -0.00053   0.00000  -0.00240  -0.00235   1.94419
   A47        1.88063   0.00060   0.00000   0.01703   0.01708   1.89771
   A48        1.84194   0.00155   0.00000   0.01190   0.01164   1.85358
    D1       -2.64259  -0.00174   0.00000  -0.05222  -0.05201  -2.69460
    D2        0.47849  -0.00076   0.00000   0.01014   0.00990   0.48839
    D3       -0.63948   0.00059   0.00000  -0.02164  -0.02140  -0.66088
[...]
                 (A) (A) (A) (A) (A) (A) (A) (A) (A) (A) (A) (A)
                 (A) (A) (A) (A) (A) (A) (A) (A) (A) (A) (A) (A)
                 (A) (A) (A) (A) (A) (A) (A) (A) (A) (A) (A) (A)
                 (A) (A) (A) (A) (A) (A) (A) (A) (A) (A) (A) (A)
                 (A) (A) (A) (A) (A) (A) (A) (A) (A) (A) (A) (A)
                 (A) (A) (A) (A) (A) (A) (A) (A) (A) (A) (A) (A)
                 (A) (A) (A) (A) (A) (A) (A) (A) (A) (A) (A) (A)
                 (A) (A) (A) (A) (A) (A) (A) (A) (A) (A) (A) (A)
                 (A) (A) (A) (A) (A) (A) (A) (A) (A) (A) (A) (A)
                 (A) (A) (A) (A) (A) (A) (A) (A) (A) (A) (A) (A)
                 (A) (A) (A) (A) (A) (A) (A) (A) (A) (A) (A) (A)
                 (A) (A) (A) (A) (A) (A) (A) (A) (A) (A) (A) (A)
                 (A) (A) (A) (A) (A) (A) (A) (A) (A) (A) (A) (A)
                 (A) (A) (A) (A) (A) (A) (A) (A) (A) (A) (A) (A)
                 (A) (A) (A) (A) (A) (A) (A) (A) (A)
 The electronic state is 1-A.
 Alpha  occ. eigenvalues --  -11.23020 -11.22460 -11.21868 -11.21729 -11.21712
 Alpha  occ. eigenvalues --  -11.21539 -11.21506 -11.21436 -11.21417 -11.21348
 Alpha  occ. eigenvalues --   -1.10821  -1.08492  -1.01823  -0.98143  -0.93838
 Alpha  occ. eigenvalues --   -0.91939  -0.86963  -0.82855  -0.70494  -0.69519
 Alpha  occ. eigenvalues --   -0.64988  -0.61512  -0.60591  -0.58878  -0.58366
 Alpha  occ. eigenvalues --   -0.56774  -0.55298  -0.54966  -0.53295  -0.52261
 Alpha  occ. eigenvalues --   -0.51859  -0.51173  -0.50832  -0.49581  -0.48519
 Alpha  occ. eigenvalues --   -0.46073  -0.44624  -0.33371  -0.31514
 Alpha virt. eigenvalues --    0.18142   0.19779   0.22152   0.24486   0.25192
 Alpha virt. eigenvalues --    0.27439   0.28535   0.28922   0.30318   0.30811
 Alpha virt. eigenvalues --    0.31477   0.32261   0.33202   0.33794   0.34383
 Alpha virt. eigenvalues --    0.35458   0.36114   0.36962   0.39185   0.40602
 Alpha virt. eigenvalues --    0.41328   0.42631   0.43685   0.44253   0.45395
 Alpha virt. eigenvalues --    0.51702   0.54378   0.61070   0.62576   0.70520
 Alpha virt. eigenvalues --    0.71073   0.72196   0.73768   0.76075   0.76177
 Alpha virt. eigenvalues --    0.76620   0.79010   0.79474   0.81070   0.82306
 Alpha virt. eigenvalues --    0.83713   0.85579   0.89117   0.91091   0.91343
 Alpha virt. eigenvalues --    0.92820   0.94745   0.97065   0.98284   0.98818
 Alpha virt. eigenvalues --    0.99710   1.00468   1.01911   1.03844   1.06577
 Alpha virt. eigenvalues --    1.08019   1.08221   1.09393   1.11664   1.12687
 Alpha virt. eigenvalues --    1.13026   1.13870   1.14856   1.15402   1.16045
 Alpha virt. eigenvalues --    1.16257   1.16619   1.18722   1.19116   1.20671
 Alpha virt. eigenvalues --    1.20953   1.23032   1.23885   1.25765   1.28153
 Alpha virt. eigenvalues --    1.34331   1.41723   1.42153   1.44890   1.46395
 Alpha virt. eigenvalues --    1.48456   1.54136   1.55360   1.57256   1.58165
 Alpha virt. eigenvalues --    1.61459   1.63397   1.66485   1.69046   1.69645
 Alpha virt. eigenvalues --    1.73917   1.82243   1.91111   1.93363   1.96231
 Alpha virt. eigenvalues --    1.98688   2.01467   2.02277   2.03942   2.08565
 Alpha virt. eigenvalues --    2.09706   2.10748   2.11744   2.13037   2.14903
 Alpha virt. eigenvalues --    2.15780   2.16940   2.19854   2.23666   2.28347
 Alpha virt. eigenvalues --    2.29590   2.30325   2.33235   2.35347   2.35688
 Alpha virt. eigenvalues --    2.35978   2.36098   2.38923   2.40264   2.41259
 Alpha virt. eigenvalues --    2.42195   2.43169   2.44154   2.45371   2.46084
 Alpha virt. eigenvalues --    2.47201   2.49167   2.49622   2.51174   2.54099
 Alpha virt. eigenvalues --    2.57315   2.58365   2.61888   2.63241   2.64107
 Alpha virt. eigenvalues --    2.67127   2.68175   2.71776   2.73352   2.73474
 Alpha virt. eigenvalues --    2.75815   2.77410   2.80796   2.82634   2.85354
 Alpha virt. eigenvalues --    2.87137   2.89441   2.92178   2.93739   2.94867
 Alpha virt. eigenvalues --    2.97869   2.99094   3.00960   3.02677   3.05807
 Alpha virt. eigenvalues --    3.06402   3.07703   3.09315   3.13762   3.17093
 Alpha virt. eigenvalues --    3.17589   3.19238   3.20046   3.21242   3.22334
 Alpha virt. eigenvalues --    3.24167   3.25050   3.26607   3.27420   3.37866
 Alpha virt. eigenvalues --    3.40355   3.46023   3.46902   3.56200   3.58183
 Alpha virt. eigenvalues --    3.59499   3.62406   3.67928   3.75494   3.78622
 Alpha virt. eigenvalues --    3.80005   3.81570   3.82569   3.83286   3.83898
 Alpha virt. eigenvalues --    3.84750   3.86481   3.87645   3.89820   3.91558
 Alpha virt. eigenvalues --    3.97645   4.59389   4.63170   4.74472   4.82572
 Alpha virt. eigenvalues --    4.88928   4.92582   4.93409   5.07840   5.10766
 Alpha virt. eigenvalues --    5.17766
          Condensed to atoms (all electrons):
               1          2          3          4          5          6
     1  C    5.004768   0.411714   0.414473   0.337355  -0.056085   0.000011
     2  H    0.411714   0.572983  -0.028296  -0.038988   0.003071  -0.000005
     3  H    0.414473  -0.028296   0.587507  -0.046308  -0.004587  -0.000489
     4  C    0.337355  -0.038988  -0.046308   4.952603   0.351934  -0.045679
     5  C   -0.056085   0.003071  -0.004587   0.351934   4.891804   0.400946
     6  H    0.000011  -0.000005  -0.000489  -0.045679   0.400946   0.596034
     7  H   -0.003698  -0.000034   0.002378  -0.041506   0.397495  -0.037541
     8  H    0.003801  -0.000108   0.000106  -0.042765   0.407087  -0.027466
     9  C   -0.047991  -0.001860   0.002531   0.697840  -0.046054  -0.001011
    10  H    0.003272   0.000031  -0.000118  -0.037842  -0.006525   0.000135
    11  C   -0.007749  -0.002811   0.000160  -0.050271   0.003364  -0.000101
    12  H    0.000152   0.000184   0.000017  -0.000627  -0.000106  -0.000004
    13  H    0.000310  -0.000067  -0.000013  -0.000247  -0.000095   0.000017
    14  H   -0.001745  -0.001657   0.000030  -0.000691   0.000109  -0.000003
    15  C    0.000587   0.000200  -0.000015  -0.000018  -0.000000  -0.000000
    16  H    0.000130  -0.000135  -0.000002  -0.000005   0.000000   0.000000
    17  H   -0.000040   0.000022   0.000000   0.000001  -0.000000  -0.000000
    18  H   -0.000302  -0.000131  -0.000016  -0.000011  -0.000000   0.000000
    19  C   -0.004325   0.001388   0.000787   0.000041  -0.000003   0.000000
    20  C   -0.000099  -0.000043  -0.000004   0.000001  -0.000000  -0.000000
    21  H   -0.000003  -0.000002   0.000003   0.000000  -0.000000  -0.000000
    22  H   -0.000005   0.000002   0.000000   0.000000  -0.000000   0.000000
    23  H    0.000024  -0.000007  -0.000002  -0.000000   0.000000   0.000000
    24  C   -0.061827  -0.000504  -0.000900   0.006443  -0.000149  -0.000111
    25  H    0.000175   0.000111   0.001011  -0.000152   0.000010   0.000015
    26  C    0.332330  -0.041801  -0.046074  -0.055544  -0.000661   0.000609
    27  H   -0.042369  -0.003118   0.004477  -0.001813   0.000243  -0.000015
    28  H   -0.046841   0.004515  -0.001931  -0.002075  -0.000289   0.000197
               7          8          9         10         11         12
     1  C   -0.003698   0.003801  -0.047991   0.003272  -0.007749   0.000152
     2  H   -0.000034  -0.000108  -0.001860   0.000031  -0.002811   0.000184
     3  H    0.002378   0.000106   0.002531  -0.000118   0.000160   0.000017
     4  C   -0.041506  -0.042765   0.697840  -0.037842  -0.050271  -0.000627
     5  C    0.397495   0.407087  -0.046054  -0.006525   0.003364  -0.000106
     6  H   -0.037541  -0.027466  -0.001011   0.000135  -0.000101  -0.000004
     7  H    0.591921  -0.026764  -0.000373   0.000216  -0.000105   0.000017
     8  H   -0.026764   0.568858  -0.002890   0.002385   0.000132  -0.000006
     9  C   -0.000373  -0.002890   4.938971   0.404494   0.340494  -0.041523
    10  H    0.000216   0.002385   0.404494   0.558671  -0.041279  -0.001122
    11  C   -0.000105   0.000132   0.340494  -0.041279   4.900974   0.401144
    12  H    0.000017  -0.000006  -0.041523  -0.001122   0.401144   0.583648
    13  H   -0.000004  -0.000006  -0.041805  -0.001264   0.402169  -0.035462
    14  H    0.000002   0.000005  -0.043903   0.003299   0.409079  -0.027132
    15  C    0.000000  -0.000000   0.000015  -0.000000  -0.000147   0.000004
    16  H   -0.000000  -0.000000   0.000000  -0.000000  -0.000009  -0.000000
    17  H    0.000000   0.000000   0.000000   0.000000   0.000003   0.000000
    18  H   -0.000000   0.000000  -0.000045   0.000000   0.000074  -0.000013
    19  C    0.000000   0.000000  -0.000001   0.000000   0.000013  -0.000000
    20  C   -0.000000   0.000000  -0.000000   0.000000  -0.000000   0.000000
    21  H   -0.000000   0.000000  -0.000000   0.000000   0.000000  -0.000000
    22  H    0.000000   0.000000   0.000000   0.000000   0.000000   0.000000
    23  H   -0.000000  -0.000000   0.000000  -0.000000  -0.000000  -0.000000
    24  C    0.000004   0.000004   0.000114   0.000002  -0.000031   0.000002
    25  H   -0.000001  -0.000000  -0.000002  -0.000000   0.000000   0.000000
    26  C    0.000086  -0.000109  -0.004911  -0.000113   0.000577  -0.000037
    27  H    0.000006  -0.000005   0.001406  -0.000046  -0.000082   0.000037
    28  H    0.000058  -0.000050   0.000760   0.000001  -0.000033  -0.000000
              13         14         15         16         17         18
     1  C    0.000310  -0.001745   0.000587   0.000130  -0.000040  -0.000302
     2  H   -0.000067  -0.001657   0.000200  -0.000135   0.000022  -0.000131
     3  H   -0.000013   0.000030  -0.000015  -0.000002   0.000000  -0.000016
     4  C   -0.000247  -0.000691  -0.000018  -0.000005   0.000001  -0.000011
     5  C   -0.000095   0.000109  -0.000000   0.000000  -0.000000  -0.000000
     6  H    0.000017  -0.000003  -0.000000   0.000000  -0.000000   0.000000
     7  H   -0.000004   0.000002   0.000000  -0.000000   0.000000  -0.000000
     8  H   -0.000006   0.000005  -0.000000  -0.000000   0.000000   0.000000
     9  C   -0.041805  -0.043903   0.000015   0.000000   0.000000  -0.000045
    10  H   -0.001264   0.003299  -0.000000  -0.000000   0.000000   0.000000
    11  C    0.402169   0.409079  -0.000147  -0.000009   0.000003   0.000074
    12  H   -0.035462  -0.027132   0.000004  -0.000000   0.000000  -0.000013
    13  H    0.586720  -0.029956  -0.000015   0.000000  -0.000000   0.000114
    14  H   -0.029956   0.577164  -0.000000   0.000079  -0.000008   0.000412
    15  C   -0.000015  -0.000000   4.907254   0.401208   0.399852   0.407154
    16  H    0.000000   0.000079   0.401208   0.587442  -0.035759  -0.028659
    17  H   -0.000000  -0.000008   0.399852  -0.035759   0.584669  -0.026060
    18  H    0.000114   0.000412   0.407154  -0.028659  -0.026060   0.568221
    19  C    0.000001  -0.000026   0.350333  -0.043385  -0.043537  -0.037848
    20  C   -0.000000   0.000000  -0.064931  -0.002632  -0.002223   0.003725
    21  H   -0.000000  -0.000000   0.003785  -0.000032  -0.000053  -0.000113
    22  H   -0.000000  -0.000000  -0.001201  -0.000476   0.002766  -0.000031
    23  H    0.000000  -0.000000  -0.001975   0.002756  -0.000456  -0.000068
    24  C   -0.000009   0.000026  -0.044248  -0.000031  -0.000365  -0.003253
    25  H    0.000000  -0.000002   0.003528  -0.000121  -0.000121   0.000061
    26  C    0.000163  -0.000737  -0.008144   0.000367   0.000117  -0.002069
    27  H   -0.000140  -0.000475  -0.002693  -0.000076   0.000113  -0.001675
    28  H   -0.000000  -0.000010   0.000195  -0.000014   0.000021   0.000058
              19         20         21         22         23         24
     1  C   -0.004325  -0.000099  -0.000003  -0.000005   0.000024  -0.061827
     2  H    0.001388  -0.000043  -0.000002   0.000002  -0.000007  -0.000504
     3  H    0.000787  -0.000004   0.000003   0.000000  -0.000002  -0.000900
     4  C    0.000041   0.000001   0.000000   0.000000  -0.000000   0.006443
     5  C   -0.000003  -0.000000  -0.000000  -0.000000   0.000000  -0.000149
     6  H    0.000000  -0.000000  -0.000000   0.000000   0.000000  -0.000111
     7  H    0.000000  -0.000000  -0.000000   0.000000  -0.000000   0.000004
     8  H    0.000000   0.000000   0.000000   0.000000  -0.000000   0.000004
     9  C   -0.000001  -0.000000  -0.000000   0.000000   0.000000   0.000114
    10  H    0.000000   0.000000   0.000000   0.000000  -0.000000   0.000002
    11  C    0.000013  -0.000000   0.000000   0.000000  -0.000000  -0.000031
    12  H   -0.000000   0.000000  -0.000000   0.000000  -0.000000   0.000002
    13  H    0.000001  -0.000000  -0.000000  -0.000000   0.000000  -0.000009
    14  H   -0.000026   0.000000  -0.000000  -0.000000  -0.000000   0.000026
    15  C    0.350333  -0.064931   0.003785  -0.001201  -0.001975  -0.044248
    16  H   -0.043385  -0.002632  -0.000032  -0.000476   0.002756  -0.000031
    17  H   -0.043537  -0.002223  -0.000053   0.002766  -0.000456  -0.000365
    18  H   -0.037848   0.003725  -0.000113  -0.000031  -0.000068  -0.003253
    19  C    4.914192   0.353753  -0.041639  -0.044274  -0.043899   0.697734
    20  C    0.353753   4.900112   0.406218   0.398811   0.398238  -0.044415
    21  H   -0.041639   0.406218   0.566018  -0.026549  -0.026703  -0.002632
    22  H   -0.044274   0.398811  -0.026549   0.593607  -0.037806  -0.001270
    23  H   -0.043899   0.398238  -0.026703  -0.037806   0.594542  -0.000422
    24  C    0.697734  -0.044415  -0.002632  -0.001270  -0.000422   4.962747
    25  H   -0.038449  -0.006963   0.002335   0.000187   0.000182   0.403391
    26  C   -0.050100   0.003126   0.000148  -0.000131  -0.000068   0.338699
    27  H    0.000438   0.000051   0.000007   0.000007  -0.000005  -0.044060
    28  H    0.001583  -0.000094  -0.000010   0.000009  -0.000002  -0.041394
              25         26         27         28
     1  C    0.000175   0.332330  -0.042369  -0.046841
     2  H    0.000111  -0.041801  -0.003118   0.004515
     3  H    0.001011  -0.046074   0.004477  -0.001931
     4  C   -0.000152  -0.055544  -0.001813  -0.002075
     5  C    0.000010  -0.000661   0.000243  -0.000289
     6  H    0.000015   0.000609  -0.000015   0.000197
     7  H   -0.000001   0.000086   0.000006   0.000058
     8  H   -0.000000  -0.000109  -0.000005  -0.000050
     9  C   -0.000002  -0.004911   0.001406   0.000760
    10  H   -0.000000  -0.000113  -0.000046   0.000001
    11  C    0.000000   0.000577  -0.000082  -0.000033
    12  H    0.000000  -0.000037   0.000037  -0.000000
    13  H    0.000000   0.000163  -0.000140  -0.000000
    14  H   -0.000002  -0.000737  -0.000475  -0.000010
    15  C    0.003528  -0.008144  -0.002693   0.000195
    16  H   -0.000121   0.000367  -0.000076  -0.000014
    17  H   -0.000121   0.000117   0.000113   0.000021
    18  H    0.000061  -0.002069  -0.001675   0.000058
    19  C   -0.038449  -0.050100   0.000438   0.001583
    20  C   -0.006963   0.003126   0.000051  -0.000094
    21  H    0.002335   0.000148   0.000007  -0.000010
    22  H    0.000187  -0.000131   0.000007   0.000009
    23  H    0.000182  -0.000068  -0.000005  -0.000002
    24  C    0.403391   0.338699  -0.044060  -0.041394
    25  H    0.557389  -0.039113   0.003152  -0.003424
    26  C   -0.039113   4.979543   0.415850   0.413482
    27  H    0.003152   0.415850   0.575347  -0.028362
    28  H   -0.003424   0.413482  -0.028362   0.585267
 Mulliken charges:
               1
     1  C   -0.236021
     2  H    0.125346
     3  H    0.115272
     4  C    0.018322
     5  C   -0.341505
     6  H    0.114461
     7  H    0.117845
     8  H    0.117792
     9  C   -0.154256
    10  H    0.115801
    11  C   -0.355567
    12  H    0.120830
    13  H    0.119588
    14  H    0.116140
    15  C   -0.350727
    16  H    0.119352
    17  H    0.121058
    18  H    0.120474
    19  C    0.027222
    20  C   -0.342631
    21  H    0.119222
    22  H    0.116356
    23  H    0.115672
    24  C   -0.163543
    25  H    0.116803
    26  C   -0.235486
    27  H    0.123802
    28  H    0.118380
 Sum of Mulliken charges =  -0.00000
 Mulliken charges with hydrogens summed into heavy atoms:
               1
     1  C    0.004596
     4  C    0.018322
     5  C    0.008593
     9  C   -0.038454
    11  C    0.000991
    15  C    0.010156
    19  C    0.027222
    20  C    0.008618
    24  C   -0.046740
    26  C    0.006696
 Electronic spatial extent (au):  <R**2>=           2384.0062
 Charge=              0.0000 electrons
 Dipole moment (field-independent basis, Debye):
    X=              0.3027    Y=              0.1253    Z=              0.0460  Tot=              0.3308
 Quadrupole moment (field-independent basis, Debye-Ang):
   XX=            -64.3023   YY=            -63.2901   ZZ=            -67.3956
   XY=              0.7521   XZ=              1.2367   YZ=             -0.3487
 Traceless Quadrupole moment (field-independent basis, Debye-Ang):
   XX=              0.6937   YY=              1.7059   ZZ=             -2.3996
   XY=              0.7521   XZ=              1.2367   YZ=             -0.3487
 Octapole moment (field-independent basis, Debye-Ang**2):
  XXX=              2.6682  YYY=             -2.9989  ZZZ=              0.9000  XYY=             -0.6416
  XXY=              4.0909  XXZ=             -2.0918  XZZ=              1.2120  YZZ=              1.4955
  YYZ=              0.6111  XYZ=             -0.3641
 Hexadecapole moment (field-independent basis, Debye-Ang**3):
 XXXX=          -2435.7168 YYYY=           -693.4923 ZZZZ=           -166.6415 XXXY=              2.3047
 XXXZ=             14.7514 YYYX=            -11.0526 YYYZ=             -1.4214 ZZZX=              2.8119
 ZZZY=             -0.6411 XXYY=           -520.1247 XXZZ=           -449.2340 YYZZ=           -138.3649
 XXYZ=             -4.2785 YYXZ=              0.5785 ZZXY=              5.9188
 N-N= 5.190879896289D+02 E-N=-1.942888718788D+03  KE= 3.887471642380D+02
 No NMR shielding tensors so no spin-rotation constants.
 Leave Link  601 at Fri Sep 17 14:59:06 2021, MaxMem=   524288000 cpu:               0.3 elap:               0.9
 (Enter /opt/gaussian/g16_legacy/l9999.exe)
 1\1\GINC-TRUENO90\FOpt\RMP2-FC\6-31G(d,p)\C10H18\JRAMOS\17-Sep-2021\0\
 \#p opt mp2/6-31g(d,p)\\Conformer number 1569. Energy MM = 23.242 kcal
 /mol\\0,1\C,-0.8776650248,0.0889162992,-0.7687242492\H,-0.9028612463,-
 0.9029076092,-0.3146691702\H,-0.8796099205,-0.0704566882,-1.8508906374
 \C,-2.0846942032,0.9056939926,-0.3813684247\C,-2.5462146279,1.90644278
 67,-1.4055520022\H,-1.7338689471,2.5792166245,-1.6893600092\H,-2.87596
 78457,1.4044663736,-2.3177512268\H,-3.3707737467,2.5116085361,-1.03085
 77096\C,-2.6953572648,0.8060172506,0.8140840876\H,-3.5417501475,1.4603
 349192,1.0039012231\C,-2.3345184175,-0.1201742899,1.935648576\H,-3.169
 9107042,-0.777627021,2.1839169764\H,-2.0953151275,0.4439935191,2.83908
 77791\H,-1.4755871146,-0.7436071766,1.697838816\C,2.1106453648,-1.2464
 233048,1.2807579745\H,1.9438008014,-2.3221118045,1.3695977871\H,2.9804
 153842,-1.0101054593,1.8978730335\H,1.2470398847,-0.7375695333,1.70146
 81035\C,2.3666470624,-0.8792029691,-0.1546779507\C,3.5277351009,-1.593
 828872,-0.7892121247\H,3.6678357329,-1.2884183577,-1.82499911\H,4.4528
 502746,-1.3918136372,-0.2445597737\H,3.3778601668,-2.6756319771,-0.768
 0521255\C,1.6407876323,0.0155541701,-0.8513152388\H,1.9117650594,0.178
 5057464,-1.891435829\C,0.4417659141,0.7761812231,-0.3679116902\H,0.455
 5592497,0.8977467954,0.7159080827\H,0.4592867102,1.7851004633,-0.78864
 51676\\Version=EM64L-G16RevA.03\State=1-A\HF=-389.1567534\MP2=-390.573
 8646\RMSD=5.130e-09\RMSF=3.178e-06\Dipole=0.0735927,-0.0737846,0.05153
 06\PG=C01 [X(C10H18)]\\@


 IF YOU'RE NOT PART OF THE SOLUTION,
 THEN YOU'RE PART OF THE PRECIPITATE.
 Job cpu time:       0 days  1 hours 26 minutes 10.5 seconds.
 Elapsed time:       0 days  1 hours 26 minutes 27.6 seconds.
 File lengths (MBytes):  RWF=     32 Int=      0 D2E=      0 Chk=      7 Scr=      1
 Normal termination of Gaussian 16 at Fri Sep 17 14:59:06 2021.
