 Entering Gaussian System, Link 0=/opt/gaussian/g16_legacy/g16
 Input=01-IsoP_3226_gaussian.com
 Output=01-IsoP_3226_gaussian.log
 Initial command:
 /opt/gaussian/g16_legacy/l1.exe "/scratch-local/jramos/2661391/Gau-2957.inp" -scrdir="/scratch-local/jramos/2661391/"
 Entering Link 1 = /opt/gaussian/g16_legacy/l1.exe PID=      2958.
  
 Copyright (c) 1988,1990,1992,1993,1995,1998,2003,2009,2016,
            Gaussian, Inc.  All Rights Reserved.
  
 This is part of the Gaussian(R) 16 program.  It is based on
 the Gaussian(R) 09 system (copyright 2009, Gaussian, Inc.),
 the Gaussian(R) 03 system (copyright 2003, Gaussian, Inc.),
 the Gaussian(R) 98 system (copyright 1998, Gaussian, Inc.),
 the Gaussian(R) 94 system (copyright 1995, Gaussian, Inc.),
 the Gaussian 92(TM) system (copyright 1992, Gaussian, Inc.),
 the Gaussian 90(TM) system (copyright 1990, Gaussian, Inc.),
 the Gaussian 88(TM) system (copyright 1988, Gaussian, Inc.),
 the Gaussian 86(TM) system (copyright 1986, Carnegie Mellon
 University), and the Gaussian 82(TM) system (copyright 1983,
 Carnegie Mellon University). Gaussian is a federally registered
 trademark of Gaussian, Inc.
  
 This software contains proprietary and confidential information,
 including trade secrets, belonging to Gaussian, Inc.
  
 This software is provided under written license and may be
 used, copied, transmitted, or stored only in accord with that
 written license.
  
 The following legend is applicable only to US Government
 contracts under FAR:
  
                    RESTRICTED RIGHTS LEGEND
  
 Use, reproduction and disclosure by the US Government is
 subject to restrictions as set forth in subparagraphs (a)
 and (c) of the Commercial Computer Software - Restricted
 Rights clause in FAR 52.227-19.
  
 Gaussian, Inc.
 340 Quinnipiac St., Bldg. 40, Wallingford CT 06492
  
  
 ---------------------------------------------------------------
 Warning -- This program may not be used in any manner that
 competes with the business of Gaussian, Inc. or will provide
 assistance to any competitor of Gaussian, Inc.  The licensee
 of this program is prohibited from giving any competitor of
 Gaussian, Inc. access to this program.  By using this program,
 the user acknowledges that Gaussian, Inc. is engaged in the
 business of creating and licensing software in the field of
 computational chemistry and represents and warrants to the
 licensee that it is not a competitor of Gaussian, Inc. and that
 it will not use this program in any manner prohibited above.
 ---------------------------------------------------------------
  

 Cite this work as:
 Gaussian 16, Revision A.03,
 M. J. Frisch, G. W. Trucks, H. B. Schlegel, G. E. Scuseria, 
 M. A. Robb, J. R. Cheeseman, G. Scalmani, V. Barone, 
 G. A. Petersson, H. Nakatsuji, X. Li, M. Caricato, A. V. Marenich, 
 J. Bloino, B. G. Janesko, R. Gomperts, B. Mennucci, H. P. Hratchian, 
 J. V. Ortiz, A. F. Izmaylov, J. L. Sonnenberg, D. Williams-Young, 
 F. Ding, F. Lipparini, F. Egidi, J. Goings, B. Peng, A. Petrone, 
 T. Henderson, D. Ranasinghe, V. G. Zakrzewski, J. Gao, N. Rega, 
 G. Zheng, W. Liang, M. Hada, M. Ehara, K. Toyota, R. Fukuda, 
 J. Hasegawa, M. Ishida, T. Nakajima, Y. Honda, O. Kitao, H. Nakai, 
 T. Vreven, K. Throssell, J. A. Montgomery, Jr., J. E. Peralta, 
 F. Ogliaro, M. J. Bearpark, J. J. Heyd, E. N. Brothers, K. N. Kudin, 
 V. N. Staroverov, T. A. Keith, R. Kobayashi, J. Normand, 
 K. Raghavachari, A. P. Rendell, J. C. Burant, S. S. Iyengar, 
 J. Tomasi, M. Cossi, J. M. Millam, M. Klene, C. Adamo, R. Cammi, 
 J. W. Ochterski, R. L. Martin, K. Morokuma, O. Farkas, 
 J. B. Foresman, and D. J. Fox, Gaussian, Inc., Wallingford CT, 2016.
 
 ******************************************
 Gaussian 16:  EM64L-G16RevA.03 25-Dec-2016
                17-Sep-2021 
 ******************************************
 %chk=01-IsoP_3226_gaussian.chk
 %nproc=1
 Will use up to    1 processors via shared memory.
 %mem=4000Mb
 ---------------------
 #p opt mp2/6-31g(d,p)
 ---------------------
 1/18=20,19=15,38=1/1,3;
 2/9=110,12=2,17=6,18=5,40=1/2;
 3/5=1,6=6,7=101,11=9,25=1,30=1,71=1/1,2,3;
 4//1;
 5/5=2,38=5/2;
 8/6=4,10=2/1;
 9/15=2,16=-3/6;
 10/5=1/2;
 6/7=2,8=2,9=2,10=2/1;
 7/12=2/1,2,3,16;
 1/18=20,19=15/3(2);
 2/9=110/2;
 99//99;
 2/9=110/2;
 3/5=1,6=6,7=101,11=9,25=1,30=1,71=1/1,2,3;
 4/5=5,16=3,69=1/1;
 5/5=2,38=5/2;
 8/6=4,10=2/1;
 9/15=2,16=-3/6;
 10/5=1/2;
 7/12=2/1,2,3,16;
 1/18=20,19=15/3(-8);
 2/9=110/2;
 6/7=2,8=2,9=2,10=2/1;
 99//99;
 Leave Link    1 at Fri Sep 17 14:59:03 2021, MaxMem=   524288000 cpu:               0.0 elap:               0.1
 (Enter /opt/gaussian/g16_legacy/l101.exe)
 --------------------------------------------------
 Conformer number 3226. Energy MM = 23.287 kcal/mol
 --------------------------------------------------
 Symbolic Z-matrix:
 Charge =  0 Multiplicity = 1
 C                     0.7539   -0.2111   -0.5875 
 H                     0.893    -1.2782   -0.7983 
 H                     0.2192    0.1815   -1.4629 
 C                     2.0919    0.4898   -0.4734 
 C                     2.0799    1.9501   -0.8474 
 H                     1.7499    2.0736   -1.8841 
 H                     1.3988    2.5069   -0.1963 
 H                     3.0703    2.4091   -0.7587 
 C                     3.2378   -0.1109   -0.0958 
 H                     4.1522    0.4811   -0.0693 
 C                     3.4243   -1.5334    0.3281 
 H                     3.9444   -1.5614    1.291 
 H                     4.039    -2.0624   -0.4064 
 H                     2.4854   -2.0781    0.45 
 C                    -2.8974    1.2325    0.0412 
 H                    -3.4983    1.653     0.8541 
 H                    -3.4521    1.3539   -0.8956 
 H                    -1.9883    1.8312   -0.0508 
 C                    -2.6296   -0.225     0.2969 
 C                    -3.8552   -1.0993    0.2414 
 H                    -4.5862   -0.7737    0.9887 
 H                    -4.319    -1.0406   -0.7487 
 H                    -3.625    -2.1516    0.4388 
 C                    -1.4172   -0.7571    0.5466 
 H                    -1.344    -1.8342    0.6985 
 C                    -0.103    -0.0331    0.67 
 H                    -0.2506    1.0291    0.8889 
 H                     0.4256   -0.4418    1.541 
 
 ITRead=  0  0  0  0  0  0  0  0  0  0  0  0  0  0  0  0  0  0  0  0
 ITRead=  0  0  0  0  0  0  0  0
 MicOpt= -1 -1 -1 -1 -1 -1 -1 -1 -1 -1 -1 -1 -1 -1 -1 -1 -1 -1 -1 -1
 MicOpt= -1 -1 -1 -1 -1 -1 -1 -1
 NAtoms=     28 NQM=       28 NQMF=       0 NMMI=      0 NMMIF=      0
                NMic=       0 NMicF=      0.
                    Isotopes and Nuclear Properties:
 (Nuclear quadrupole moments (NQMom) in fm**2, nuclear magnetic moments (NMagM)
  in nuclear magnetons)

  Atom         1           2           3           4           5           6           7           8           9          10
 IAtWgt=          12           1           1          12          12           1           1           1          12           1
 AtmWgt=  12.0000000   1.0078250   1.0078250  12.0000000  12.0000000   1.0078250   1.0078250   1.0078250  12.0000000   1.0078250
 NucSpn=           0           1           1           0           0           1           1           1           0           1
 AtZEff=  -0.0000000  -0.0000000  -0.0000000  -0.0000000  -0.0000000  -0.0000000  -0.0000000  -0.0000000  -0.0000000  -0.0000000
 NQMom=    0.0000000   0.0000000   0.0000000   0.0000000   0.0000000   0.0000000   0.0000000   0.0000000   0.0000000   0.0000000
 NMagM=    0.0000000   2.7928460   2.7928460   0.0000000   0.0000000   2.7928460   2.7928460   2.7928460   0.0000000   2.7928460
 AtZNuc=   6.0000000   1.0000000   1.0000000   6.0000000   6.0000000   1.0000000   1.0000000   1.0000000   6.0000000   1.0000000

  Atom        11          12          13          14          15          16          17          18          19          20
 IAtWgt=          12           1           1           1          12           1           1           1          12          12
 AtmWgt=  12.0000000   1.0078250   1.0078250   1.0078250  12.0000000   1.0078250   1.0078250   1.0078250  12.0000000  12.0000000
 NucSpn=           0           1           1           1           0           1           1           1           0           0
 AtZEff=  -0.0000000  -0.0000000  -0.0000000  -0.0000000  -0.0000000  -0.0000000  -0.0000000  -0.0000000  -0.0000000  -0.0000000
 NQMom=    0.0000000   0.0000000   0.0000000   0.0000000   0.0000000   0.0000000   0.0000000   0.0000000   0.0000000   0.0000000
 NMagM=    0.0000000   2.7928460   2.7928460   2.7928460   0.0000000   2.7928460   2.7928460   2.7928460   0.0000000   0.0000000
 AtZNuc=   6.0000000   1.0000000   1.0000000   1.0000000   6.0000000   1.0000000   1.0000000   1.0000000   6.0000000   6.0000000

  Atom        21          22          23          24          25          26          27          28
 IAtWgt=           1           1           1          12           1          12           1           1
 AtmWgt=   1.0078250   1.0078250   1.0078250  12.0000000   1.0078250  12.0000000   1.0078250   1.0078250
 NucSpn=           1           1           1           0           1           0           1           1
 AtZEff=  -0.0000000  -0.0000000  -0.0000000  -0.0000000  -0.0000000  -0.0000000  -0.0000000  -0.0000000
 NQMom=    0.0000000   0.0000000   0.0000000   0.0000000   0.0000000   0.0000000   0.0000000   0.0000000
 NMagM=    2.7928460   2.7928460   2.7928460   0.0000000   2.7928460   0.0000000   2.7928460   2.7928460
 AtZNuc=   1.0000000   1.0000000   1.0000000   6.0000000   1.0000000   6.0000000   1.0000000   1.0000000
 Leave Link  101 at Fri Sep 17 14:59:03 2021, MaxMem=   524288000 cpu:               0.3 elap:               0.3
 (Enter /opt/gaussian/g16_legacy/l103.exe)

 GradGradGradGradGradGradGradGradGradGradGradGradGradGradGradGradGradGrad
 Berny optimization.
 Initialization pass.
                           ----------------------------
                           !    Initial Parameters    !
                           ! (Angstroms and Degrees)  !
 --------------------------                            --------------------------
 ! Name  Definition              Value          Derivative Info.                !
 --------------------------------------------------------------------------------
 ! R1    R(1,2)                  1.0966         estimate D2E/DX2                !
 ! R2    R(1,3)                  1.0983         estimate D2E/DX2                !
 ! R3    R(1,4)                  1.5148         estimate D2E/DX2                !
 ! R4    R(1,26)                 1.5321         estimate D2E/DX2                !
 ! R5    R(4,5)                  1.5075         estimate D2E/DX2                !
 ! R6    R(4,9)                  1.3478         estimate D2E/DX2                !
 ! R7    R(5,6)                  1.0949         estimate D2E/DX2                !
 ! R8    R(5,7)                  1.0945         estimate D2E/DX2                !
 ! R9    R(5,8)                  1.0952         estimate D2E/DX2                !
 ! R10   R(9,10)                 1.0896         estimate D2E/DX2                !
 ! R11   R(9,11)                 1.496          estimate D2E/DX2                !
 ! R12   R(11,12)                1.0947         estimate D2E/DX2                !
 ! R13   R(11,13)                1.0942         estimate D2E/DX2                !
 ! R14   R(11,14)                1.0923         estimate D2E/DX2                !
 ! R15   R(15,16)                1.0949         estimate D2E/DX2                !
 ! R16   R(15,17)                1.0955         estimate D2E/DX2                !
 ! R17   R(15,18)                1.0924         estimate D2E/DX2                !
 ! R18   R(15,19)                1.5038         estimate D2E/DX2                !
 ! R19   R(19,20)                1.5065         estimate D2E/DX2                !
 ! R20   R(19,24)                1.3474         estimate D2E/DX2                !
 ! R21   R(20,21)                1.0949         estimate D2E/DX2                !
 ! R22   R(20,22)                1.0949         estimate D2E/DX2                !
 ! R23   R(20,23)                1.0951         estimate D2E/DX2                !
 ! R24   R(24,25)                1.0902         estimate D2E/DX2                !
 ! R25   R(24,26)                1.5055         estimate D2E/DX2                !
 ! R26   R(26,27)                1.0945         estimate D2E/DX2                !
 ! R27   R(26,28)                1.0978         estimate D2E/DX2                !
 ! A1    A(2,1,3)              104.8552         estimate D2E/DX2                !
 ! A2    A(2,1,4)              110.6529         estimate D2E/DX2                !
 ! A3    A(2,1,26)             109.9858         estimate D2E/DX2                !
 ! A4    A(3,1,4)              108.9446         estimate D2E/DX2                !
 ! A5    A(3,1,26)             109.899          estimate D2E/DX2                !
 ! A6    A(4,1,26)             112.2378         estimate D2E/DX2                !
 ! A7    A(1,4,5)              114.9932         estimate D2E/DX2                !
 ! A8    A(1,4,9)              124.4628         estimate D2E/DX2                !
 ! A9    A(5,4,9)              120.5322         estimate D2E/DX2                !
 ! A10   A(4,5,6)              110.277          estimate D2E/DX2                !
 ! A11   A(4,5,7)              110.4983         estimate D2E/DX2                !
 ! A12   A(4,5,8)              112.253          estimate D2E/DX2                !
 ! A13   A(6,5,7)              108.5614         estimate D2E/DX2                !
 ! A14   A(6,5,8)              107.5753         estimate D2E/DX2                !
 ! A15   A(7,5,8)              107.54           estimate D2E/DX2                !
 ! A16   A(4,9,10)             118.5647         estimate D2E/DX2                !
 ! A17   A(4,9,11)             127.5304         estimate D2E/DX2                !
 ! A18   A(10,9,11)            113.8977         estimate D2E/DX2                !
 ! A19   A(9,11,12)            109.4376         estimate D2E/DX2                !
 ! A20   A(9,11,13)            109.8493         estimate D2E/DX2                !
 ! A21   A(9,11,14)            113.4935         estimate D2E/DX2                !
 ! A22   A(12,11,13)           108.13           estimate D2E/DX2                !
 ! A23   A(12,11,14)           107.305          estimate D2E/DX2                !
 ! A24   A(13,11,14)           108.465          estimate D2E/DX2                !
 ! A25   A(16,15,17)           108.3284         estimate D2E/DX2                !
 ! A26   A(16,15,18)           107.9857         estimate D2E/DX2                !
 ! A27   A(16,15,19)           110.1047         estimate D2E/DX2                !
 ! A28   A(17,15,18)           106.7764         estimate D2E/DX2                !
 ! A29   A(17,15,19)           110.0594         estimate D2E/DX2                !
 ! A30   A(18,15,19)           113.4095         estimate D2E/DX2                !
 ! A31   A(15,19,20)           114.289          estimate D2E/DX2                !
 ! A32   A(15,19,24)           125.0658         estimate D2E/DX2                !
 ! A33   A(20,19,24)           120.6426         estimate D2E/DX2                !
 ! A34   A(19,20,21)           110.2073         estimate D2E/DX2                !
 ! A35   A(19,20,22)           110.2921         estimate D2E/DX2                !
 ! A36   A(19,20,23)           112.334          estimate D2E/DX2                !
 ! A37   A(21,20,22)           108.5682         estimate D2E/DX2                !
 ! A38   A(21,20,23)           107.6415         estimate D2E/DX2                !
 ! A39   A(22,20,23)           107.6711         estimate D2E/DX2                !
 ! A40   A(19,24,25)           118.4509         estimate D2E/DX2                !
 ! A41   A(19,24,26)           127.6448         estimate D2E/DX2                !
 ! A42   A(25,24,26)           113.8965         estimate D2E/DX2                !
 ! A43   A(1,26,24)            111.413          estimate D2E/DX2                !
 ! A44   A(1,26,27)            110.6298         estimate D2E/DX2                !
 ! A45   A(1,26,28)            109.7951         estimate D2E/DX2                !
 ! A46   A(24,26,27)           111.4309         estimate D2E/DX2                !
 ! A47   A(24,26,28)           107.8382         estimate D2E/DX2                !
 ! A48   A(27,26,28)           105.5191         estimate D2E/DX2                !
 ! D1    D(2,1,4,5)            151.7305         estimate D2E/DX2                !
 ! D2    D(2,1,4,9)            -27.0206         estimate D2E/DX2                !
 ! D3    D(3,1,4,5)             36.9556         estimate D2E/DX2                !
 ! D4    D(3,1,4,9)           -141.7955         estimate D2E/DX2                !
 ! D5    D(26,1,4,5)           -84.9899         estimate D2E/DX2                !
 ! D6    D(26,1,4,9)            96.2589         estimate D2E/DX2                !
 ! D7    D(2,1,26,24)          -55.3225         estimate D2E/DX2                !
 ! D8    D(2,1,26,27)         -179.8635         estimate D2E/DX2                !
 ! D9    D(2,1,26,28)           64.0742         estimate D2E/DX2                !
 ! D10   D(3,1,26,24)           59.6242         estimate D2E/DX2                !
 ! D11   D(3,1,26,27)          -64.9168         estimate D2E/DX2                !
 ! D12   D(3,1,26,28)          179.0209         estimate D2E/DX2                !
 ! D13   D(4,1,26,24)         -178.9758         estimate D2E/DX2                !
 ! D14   D(4,1,26,27)           56.4833         estimate D2E/DX2                !
 ! D15   D(4,1,26,28)          -59.579          estimate D2E/DX2                !
 ! D16   D(1,4,5,6)            -59.4793         estimate D2E/DX2                !
 ! D17   D(1,4,5,7)             60.5479         estimate D2E/DX2                !
 ! D18   D(1,4,5,8)           -179.4121         estimate D2E/DX2                !
 ! D19   D(9,4,5,6)            119.3253         estimate D2E/DX2                !
 ! D20   D(9,4,5,7)           -120.6475         estimate D2E/DX2                !
 ! D21   D(9,4,5,8)             -0.6075         estimate D2E/DX2                !
 ! D22   D(1,4,9,10)           178.5628         estimate D2E/DX2                !
 ! D23   D(1,4,9,11)            -2.4775         estimate D2E/DX2                !
 ! D24   D(5,4,9,10)            -0.123          estimate D2E/DX2                !
 ! D25   D(5,4,9,11)           178.8367         estimate D2E/DX2                !
 ! D26   D(4,9,11,12)         -127.8654         estimate D2E/DX2                !
 ! D27   D(4,9,11,13)          113.5655         estimate D2E/DX2                !
 ! D28   D(4,9,11,14)           -8.0411         estimate D2E/DX2                !
 ! D29   D(10,9,11,12)          51.1352         estimate D2E/DX2                !
 ! D30   D(10,9,11,13)         -67.4338         estimate D2E/DX2                !
 ! D31   D(10,9,11,14)         170.9596         estimate D2E/DX2                !
 ! D32   D(16,15,19,20)         66.7668         estimate D2E/DX2                !
 ! D33   D(16,15,19,24)       -113.8232         estimate D2E/DX2                !
 ! D34   D(17,15,19,20)        -52.5837         estimate D2E/DX2                !
 ! D35   D(17,15,19,24)        126.8262         estimate D2E/DX2                !
 ! D36   D(18,15,19,20)       -172.1166         estimate D2E/DX2                !
 ! D37   D(18,15,19,24)          7.2933         estimate D2E/DX2                !
 ! D38   D(15,19,20,21)        -59.5772         estimate D2E/DX2                !
 ! D39   D(15,19,20,22)         60.2819         estimate D2E/DX2                !
 ! D40   D(15,19,20,23)       -179.5996         estimate D2E/DX2                !
 ! D41   D(24,19,20,21)        120.9842         estimate D2E/DX2                !
 ! D42   D(24,19,20,22)       -119.1567         estimate D2E/DX2                !
 ! D43   D(24,19,20,23)          0.9617         estimate D2E/DX2                !
 ! D44   D(15,19,24,25)       -178.8539         estimate D2E/DX2                !
 ! D45   D(15,19,24,26)          2.233          estimate D2E/DX2                !
 ! D46   D(20,19,24,25)          0.5209         estimate D2E/DX2                !
 ! D47   D(20,19,24,26)       -178.3922         estimate D2E/DX2                !
 ! D48   D(19,24,26,1)        -103.6586         estimate D2E/DX2                !
 ! D49   D(19,24,26,27)         20.4312         estimate D2E/DX2                !
 ! D50   D(19,24,26,28)        135.7885         estimate D2E/DX2                !
 ! D51   D(25,24,26,1)          77.3867         estimate D2E/DX2                !
 ! D52   D(25,24,26,27)       -158.5236         estimate D2E/DX2                !
 ! D53   D(25,24,26,28)        -43.1663         estimate D2E/DX2                !
 --------------------------------------------------------------------------------
 Trust Radius=3.00D-01 FncErr=1.00D-07 GrdErr=1.00D-07 EigMax=2.50D+02 EigMin=1.00D-04
 Number of steps in this run=    138 maximum allowed number of steps=    168.
 GradGradGradGradGradGradGradGradGradGradGradGradGradGradGradGradGradGrad

 Leave Link  103 at Fri Sep 17 14:59:04 2021, MaxMem=   524288000 cpu:               0.1 elap:               0.1
 (Enter /opt/gaussian/g16_legacy/l202.exe)
                          Input orientation:                          
 ---------------------------------------------------------------------
 Center     Atomic      Atomic             Coordinates (Angstroms)
 Number     Number       Type             X           Y           Z
 ---------------------------------------------------------------------
      1          6           0        0.753900   -0.211100   -0.587500
      2          1           0        0.893000   -1.278200   -0.798300
      3          1           0        0.219200    0.181500   -1.462900
      4          6           0        2.091900    0.489800   -0.473400
      5          6           0        2.079900    1.950100   -0.847400
      6          1           0        1.749900    2.073600   -1.884100
      7          1           0        1.398800    2.506900   -0.196300
      8          1           0        3.070300    2.409100   -0.758700
      9          6           0        3.237800   -0.110900   -0.095800
     10          1           0        4.152200    0.481100   -0.069300
     11          6           0        3.424300   -1.533400    0.328100
     12          1           0        3.944400   -1.561400    1.291000
     13          1           0        4.039000   -2.062400   -0.406400
     14          1           0        2.485400   -2.078100    0.450000
     15          6           0       -2.897400    1.232500    0.041200
     16          1           0       -3.498300    1.653000    0.854100
     17          1           0       -3.452100    1.353900   -0.895600
     18          1           0       -1.988300    1.831200   -0.050800
     19          6           0       -2.629600   -0.225000    0.296900
     20          6           0       -3.855200   -1.099300    0.241400
     21          1           0       -4.586200   -0.773700    0.988700
     22          1           0       -4.319000   -1.040600   -0.748700
     23          1           0       -3.625000   -2.151600    0.438800
     24          6           0       -1.417200   -0.757100    0.546600
     25          1           0       -1.344000   -1.834200    0.698500
     26          6           0       -0.103000   -0.033100    0.670000
     27          1           0       -0.250600    1.029100    0.888900
     28          1           0        0.425600   -0.441800    1.541000
 ---------------------------------------------------------------------
                    Distance matrix (angstroms):
                    1          2          3          4          5
     1  C    0.000000
     2  H    1.096580   0.000000
     3  H    1.098346   1.739662   0.000000
     4  C    1.514769   2.160728   2.140365   0.000000
     5  C    2.548845   3.439922   2.639885   1.507480   0.000000
     6  H    2.809456   3.625990   2.469918   2.148362   1.094943
     7  H    2.820719   3.865905   2.898830   2.150782   1.094465
     8  H    3.501495   4.282334   3.686037   2.173103   1.095190
     9  C    2.534081   2.711860   3.326621   1.347779   2.480596
    10  H    3.506582   3.774780   4.183344   2.099573   2.656657
    11  C    3.117345   2.782334   4.052312   2.551672   3.914586
    12  H    3.940985   3.708965   4.949624   3.279068   4.514393
    13  H    3.775181   3.265865   4.554355   3.210827   4.486949
    14  H    2.749580   2.175737   3.728356   2.757104   4.251361
    15  C    3.976335   4.623365   3.616644   5.070457   5.106670
    16  H    4.861510   5.532258   4.620996   5.862220   5.839494
    17  H    4.498287   5.081074   3.895484   5.626798   5.564243
    18  H    3.461025   4.304534   3.096545   4.315782   4.147163
    19  C    3.497203   3.836327   3.373099   4.837030   5.312238
    20  C    4.766527   4.863989   4.598459   6.197110   6.760898
    21  H    5.596212   5.785285   5.478560   6.952064   7.431503
    22  H    5.142798   5.217649   4.753827   6.596784   7.063990
    23  H    4.898326   4.765036   4.882386   6.363336   7.143118
    24  C    2.509576   2.723477   2.756241   3.861210   4.637012
    25  H    2.947785   2.748402   3.343395   4.310422   5.332338
    26  C    1.532080   2.167532   2.167747   2.529501   3.316721
    27  H    2.174137   3.078652   2.543639   2.762972   3.048641
    28  H    2.165991   2.527915   3.074820   2.775291   3.763290
                    6          7          8          9         10
     6  H    0.000000
     7  H    1.777551   0.000000
     8  H    1.767071   1.766287   0.000000
     9  C    3.191223   3.200765   2.611109   0.000000
    10  H    3.405965   3.420703   2.315807   1.089630   0.000000
    11  C    4.550593   4.549909   4.104845   1.495988   2.178526
    12  H    5.301916   5.024262   4.553042   2.127545   2.462804
    13  H    4.952784   5.281411   4.588770   2.132310   2.568237
    14  H    4.819294   4.756115   4.683805   2.175748   3.097967
    15  C    5.100159   4.487520   6.134955   6.282052   7.090393
    16  H    5.934496   5.080755   6.805830   7.027709   7.794624
    17  H    5.343772   5.034845   6.608622   6.894932   7.698697
    18  H    4.170598   3.456904   5.140479   5.575473   6.287198
    19  C    5.405584   4.892293   6.367231   5.881634   6.828286
    20  C    6.782491   6.387548   7.827619   7.169469   8.167781
    21  H    7.517065   6.927250   8.473819   7.926564   8.891205
    22  H    6.915123   6.751529   8.154893   7.641718   8.633562
    23  H    7.220646   6.880664   8.189080   7.179713   8.226428
    24  C    4.894046   4.374409   5.645023   4.743340   5.738527
    25  H    5.613639   5.212367   6.294050   4.959190   6.013181
    26  C    3.794055   3.075301   4.251512   3.428330   4.349447
    27  H    3.575264   2.466186   3.955675   3.799759   4.539064
    28  H    4.451103   3.558112   4.517819   3.270639   4.163215
                   11         12         13         14         15
    11  C    0.000000
    12  H    1.094744   0.000000
    13  H    1.094161   1.772320   0.000000
    14  H    1.092287   1.761517   1.774075   0.000000
    15  C    6.906258   7.495205   7.692227   6.332592   0.000000
    16  H    7.638862   8.118930   8.497291   7.063220   1.094855
    17  H    7.557699   8.245508   8.247848   6.988789   1.095456
    18  H    6.384382   6.964703   7.184352   5.962166   1.092414
    19  C    6.193754   6.781716   6.952762   5.442485   1.503797
    20  C    7.292947   7.883461   7.979073   6.419094   2.528785
    21  H    8.073515   8.572222   8.831825   7.211046   2.788304
    22  H    7.833329   8.527332   8.427183   6.986641   2.794973
    23  H    7.077221   7.640052   7.710980   6.110852   3.484196
    24  C    4.908208   5.472457   5.690530   4.121245   2.530796
    25  H    4.792115   5.328475   5.499961   3.845198   3.499963
    26  C    3.848330   4.370674   4.736334   3.306091   3.131422
    27  H    4.515063   4.946756   5.443881   4.163294   2.786668
    28  H    3.413930   3.701075   4.413091   2.847900   4.011859
                   16         17         18         19         20
    16  H    0.000000
    17  H    1.775682   0.000000
    18  H    1.769378   1.756193   0.000000
    19  C    2.142894   2.142776   2.181770   0.000000
    20  C    2.842171   2.733761   3.486908   1.506511   0.000000
    21  H    2.662802   3.059976   3.822976   2.146612   1.094913
    22  H    3.240061   2.550828   3.763836   2.147686   1.094922
    23  H    3.829296   3.754870   4.333727   2.173188   1.095123
    24  C    3.199080   3.267580   2.717046   1.347366   2.480744
    25  H    4.101924   4.141162   3.796278   2.098470   2.656152
    26  C    3.795377   3.948587   2.747640   2.561198   3.924218
    27  H    3.307267   3.679611   2.132135   2.753701   4.235857
    28  H    4.500779   4.919158   3.677944   3.305909   4.521782
                   21         22         23         24         25
    21  H    0.000000
    22  H    1.777974   0.000000
    23  H    1.767740   1.768082   0.000000
    24  C    3.199733   3.190395   2.613548   0.000000
    25  H    3.423556   3.402178   2.317574   1.090218   0.000000
    26  C    4.555122   4.560967   4.116549   1.505498   2.187431
    27  H    4.696539   4.849461   4.658972   2.160702   3.070873
    28  H    5.053052   5.302124   4.532728   2.117583   2.404177
                   26         27         28
    26  C    0.000000
    27  H    1.094519   0.000000
    28  H    1.097768   1.745287   0.000000
 Stoichiometry    C10H18
 Framework group  C1[X(C10H18)]
 Deg. of freedom    78
 Full point group                 C1      NOp   1
 Largest Abelian subgroup         C1      NOp   1
 Largest concise Abelian subgroup C1      NOp   1
                         Standard orientation:                         
 ---------------------------------------------------------------------
 Center     Atomic      Atomic             Coordinates (Angstroms)
 Number     Number       Type             X           Y           Z
 ---------------------------------------------------------------------
      1          6           0       -0.745862   -0.045433    0.580359
      2          1           0       -0.871534   -1.012097    1.082609
      3          1           0       -0.286542    0.606626    1.335480
      4          6           0       -2.090191    0.530310    0.185614
      5          6           0       -2.144003    2.035399    0.119982
      6          1           0       -1.893322    2.466927    1.094580
      7          1           0       -1.432542    2.412379   -0.621344
      8          1           0       -3.137196    2.403131   -0.158915
      9          6           0       -3.189421   -0.205990   -0.071416
     10          1           0       -4.114868    0.310380   -0.324801
     11          6           0       -3.306977   -1.697347   -0.075161
     12          1           0       -3.755067   -2.025097   -1.018697
     13          1           0       -3.959012   -2.020675    0.741844
     14          1           0       -2.347612   -2.210005    0.024289
     15          6           0        2.901836    1.323887   -0.213680
     16          1           0        3.548663    1.520237   -1.074940
     17          1           0        3.383837    1.735086    0.679973
     18          1           0        1.972916    1.880987   -0.355511
     19          6           0        2.691970   -0.156352   -0.051650
     20          6           0        3.933072   -0.920033    0.330495
     21          1           0        4.707377   -0.789582   -0.432570
     22          1           0        4.322246   -0.557700    1.287632
     23          1           0        3.745735   -1.994134    0.432995
     24          6           0        1.515360   -0.793329   -0.210529
     25          1           0        1.481918   -1.870800   -0.047703
     26          6           0        0.194821   -0.197059   -0.619388
     27          1           0        0.329684    0.762982   -1.127429
     28          1           0       -0.258309   -0.862972   -1.365261
 ---------------------------------------------------------------------
 Rotational constants (GHZ):           2.4778750           0.5324321           0.4581609
 Leave Link  202 at Fri Sep 17 14:59:04 2021, MaxMem=   524288000 cpu:               0.0 elap:               0.2
 (Enter /opt/gaussian/g16_legacy/l301.exe)
 Standard basis: 6-31G(d,p) (6D, 7F)
 Ernie: Thresh=  0.10000D-02 Tol=  0.10000D-05 Strict=F.
 There are   240 symmetry adapted cartesian basis functions of A   symmetry.
 There are   240 symmetry adapted basis functions of A   symmetry.
   240 basis functions,   406 primitive gaussians,   240 cartesian basis functions
    39 alpha electrons       39 beta electrons
       nuclear repulsion energy       513.2776303664 Hartrees.
 IExCor=    0 DFT=F Ex=HF Corr=None ExCW=0 ScaHFX=  1.000000
 ScaDFX=  1.000000  1.000000  1.000000  1.000000 ScalE2=  1.000000  1.000000
 IRadAn=      5 IRanWt=     -1 IRanGd=            0 ICorTp=0 IEmpDi=  4
 NAtoms=   28 NActive=   28 NUniq=   28 SFac= 1.00D+00 NAtFMM=   60 NAOKFM=F Big=F
 Integral buffers will be    131072 words long.
 Raffenetti 1 integral format.
 Two-electron integral symmetry is turned on.
 Leave Link  301 at Fri Sep 17 14:59:04 2021, MaxMem=   524288000 cpu:               0.1 elap:               0.2
 (Enter /opt/gaussian/g16_legacy/l302.exe)
 NPDir=0 NMtPBC=     1 NCelOv=     1 NCel=       1 NClECP=     1 NCelD=      1
         NCelK=      1 NCelE2=     1 NClLst=     1 CellRange=     0.0.
 One-electron integrals computed using PRISM.
 One-electron integral symmetry used in STVInt
 NBasis=   240 RedAO= T EigKep=  2.09D-03  NBF=   240
 NBsUse=   240 1.00D-06 EigRej= -1.00D+00 NBFU=   240
 Leave Link  302 at Fri Sep 17 14:59:05 2021, MaxMem=   524288000 cpu:               0.3 elap:               0.7
 (Enter /opt/gaussian/g16_legacy/l303.exe)
 DipDrv:  MaxL=1.
 Leave Link  303 at Fri Sep 17 14:59:05 2021, MaxMem=   524288000 cpu:               0.1 elap:               0.2
 (Enter /opt/gaussian/g16_legacy/l401.exe)
 ExpMin= 1.61D-01 ExpMax= 3.05D+03 ExpMxC= 4.57D+02 IAcc=3 IRadAn=         5 AccDes= 0.00D+00
 Harris functional with IExCor=  205 and IRadAn=       5 diagonalized for initial guess.
 HarFok:  IExCor=  205 AccDes= 0.00D+00 IRadAn=         5 IDoV= 1 UseB2=F ITyADJ=14
 ICtDFT=  3500011 ScaDFX=  1.000000  1.000000  1.000000  1.000000
 FoFCou: FMM=F IPFlag=           0 FMFlag=      100000 FMFlg1=           0
         NFxFlg=           0 DoJE=T BraDBF=F KetDBF=T FulRan=T
         wScrn=  0.000000 ICntrl=       500 IOpCl=  0 I1Cent=   200000004 NGrid=           0
         NMat0=    1 NMatS0=      1 NMatT0=    0 NMatD0=    1 NMtDS0=    0 NMtDT0=    0
 Petite list used in FoFCou.
 Harris En= -390.110063716669    
 JPrj=0 DoOrth=F DoCkMO=F.
 Leave Link  401 at Fri Sep 17 14:59:18 2021, MaxMem=   524288000 cpu:              11.7 elap:              12.5
 (Enter /opt/gaussian/g16_legacy/l502.exe)
 Keep R1 ints in memory in canonical form, NReq=425198025.
 FoFCou: FMM=F IPFlag=           0 FMFlag=           0 FMFlg1=           0
         NFxFlg=           0 DoJE=F BraDBF=F KetDBF=F FulRan=T
         wScrn=  0.000000 ICntrl=       600 IOpCl=  0 I1Cent=           0 NGrid=           0
         NMat0=    1 NMatS0=  28920 NMatT0=    0 NMatD0=    1 NMtDS0=    0 NMtDT0=    0
 Symmetry not used in FoFCou.
 Two-electron integral symmetry not used.
 Closed shell SCF:
 Using DIIS extrapolation, IDIIS=  1040.
 NGot=   524288000 LenX=   105970886 LenY=   105912845
 Requested convergence on RMS density matrix=1.00D-08 within 128 cycles.
 Requested convergence on MAX density matrix=1.00D-06.
 Requested convergence on             energy=1.00D-06.
 No special actions if energy rises.

 Cycle   1  Pass 1  IDiag  1:
 E= -388.532784074026    
 DIIS: error= 5.01D-02 at cycle   1 NSaved=   1.
 NSaved= 1 IEnMin= 1 EnMin= -388.532784074026     IErMin= 1 ErrMin= 5.01D-02
 ErrMax= 5.01D-02  0.00D+00 EMaxC= 1.00D-01 BMatC= 8.07D-01 BMatP= 8.07D-01
 IDIUse=3 WtCom= 4.99D-01 WtEn= 5.01D-01
 Coeff-Com:  0.100D+01
 Coeff-En:   0.100D+01
 Coeff:      0.100D+01
 Gap=     0.508 Goal=   None    Shift=    0.000
 GapD=    0.508 DampG=2.000 DampE=0.500 DampFc=1.0000 IDamp=-1.
 RMSDP=3.99D-03 MaxDP=1.15D-01              OVMax= 1.39D-01

 Cycle   2  Pass 1  IDiag  1:
 E= -389.074237717759     Delta-E=       -0.541453643734 Rises=F Damp=F
 DIIS: error= 1.46D-02 at cycle   2 NSaved=   2.
 NSaved= 2 IEnMin= 2 EnMin= -389.074237717759     IErMin= 2 ErrMin= 1.46D-02
 ErrMax= 1.46D-02  0.00D+00 EMaxC= 1.00D-01 BMatC= 8.63D-02 BMatP= 8.07D-01
 IDIUse=3 WtCom= 8.54D-01 WtEn= 1.46D-01
 Coeff-Com:  0.183D+00 0.817D+00
 Coeff-En:   0.000D+00 0.100D+01
 Coeff:      0.156D+00 0.844D+00
 Gap=     0.552 Goal=   None    Shift=    0.000
 RMSDP=1.62D-03 MaxDP=3.04D-02 DE=-5.41D-01 OVMax= 4.55D-02

 Cycle   3  Pass 1  IDiag  1:
 E= -389.151656804801     Delta-E=       -0.077419087042 Rises=F Damp=F
 DIIS: error= 2.66D-03 at cycle   3 NSaved=   3.
 NSaved= 3 IEnMin= 3 EnMin= -389.151656804801     IErMin= 3 ErrMin= 2.66D-03
 ErrMax= 2.66D-03  0.00D+00 EMaxC= 1.00D-01 BMatC= 3.01D-03 BMatP= 8.63D-02
 IDIUse=3 WtCom= 9.73D-01 WtEn= 2.66D-02
 Coeff-Com: -0.245D-01 0.102D+00 0.922D+00
 Coeff-En:   0.000D+00 0.000D+00 0.100D+01
 Coeff:     -0.239D-01 0.997D-01 0.924D+00
 Gap=     0.499 Goal=   None    Shift=    0.000
 RMSDP=2.54D-04 MaxDP=6.75D-03 DE=-7.74D-02 OVMax= 9.70D-03

 Cycle   4  Pass 1  IDiag  1:
 E= -389.155149012018     Delta-E=       -0.003492207217 Rises=F Damp=F
 DIIS: error= 4.95D-04 at cycle   4 NSaved=   4.
 NSaved= 4 IEnMin= 4 EnMin= -389.155149012018     IErMin= 4 ErrMin= 4.95D-04
 ErrMax= 4.95D-04  0.00D+00 EMaxC= 1.00D-01 BMatC= 9.59D-05 BMatP= 3.01D-03
 IDIUse=3 WtCom= 9.95D-01 WtEn= 4.95D-03
 Coeff-Com: -0.443D-02-0.829D-03 0.103D+00 0.903D+00
 Coeff-En:   0.000D+00 0.000D+00 0.000D+00 0.100D+01
 Coeff:     -0.441D-02-0.825D-03 0.102D+00 0.903D+00
 Gap=     0.500 Goal=   None    Shift=    0.000
 RMSDP=7.33D-05 MaxDP=1.75D-03 DE=-3.49D-03 OVMax= 3.51D-03

 Cycle   5  Pass 1  IDiag  1:
 E= -389.155274278739     Delta-E=       -0.000125266721 Rises=F Damp=F
 DIIS: error= 1.73D-04 at cycle   5 NSaved=   5.
 NSaved= 5 IEnMin= 5 EnMin= -389.155274278739     IErMin= 5 ErrMin= 1.73D-04
 ErrMax= 1.73D-04  0.00D+00 EMaxC= 1.00D-01 BMatC= 1.79D-05 BMatP= 9.59D-05
 IDIUse=3 WtCom= 9.98D-01 WtEn= 1.73D-03
 Coeff-Com:  0.248D-02-0.153D-01-0.106D+00 0.196D+00 0.923D+00
 Coeff-En:   0.000D+00 0.000D+00 0.000D+00 0.000D+00 0.100D+01
 Coeff:      0.247D-02-0.153D-01-0.105D+00 0.196D+00 0.923D+00
 Gap=     0.500 Goal=   None    Shift=    0.000
 RMSDP=3.09D-05 MaxDP=7.46D-04 DE=-1.25D-04 OVMax= 1.02D-03

 Cycle   6  Pass 1  IDiag  1:
 E= -389.155297904375     Delta-E=       -0.000023625636 Rises=F Damp=F
 DIIS: error= 3.73D-05 at cycle   6 NSaved=   6.
 NSaved= 6 IEnMin= 6 EnMin= -389.155297904375     IErMin= 6 ErrMin= 3.73D-05
 ErrMax= 3.73D-05  0.00D+00 EMaxC= 1.00D-01 BMatC= 5.50D-07 BMatP= 1.79D-05
 IDIUse=1 WtCom= 1.00D+00 WtEn= 0.00D+00
 Coeff-Com:  0.725D-03-0.330D-02-0.263D-01-0.272D-02 0.163D+00 0.868D+00
 Coeff:      0.725D-03-0.330D-02-0.263D-01-0.272D-02 0.163D+00 0.868D+00
 Gap=     0.500 Goal=   None    Shift=    0.000
 RMSDP=5.42D-06 MaxDP=1.67D-04 DE=-2.36D-05 OVMax= 3.13D-04

 Cycle   7  Pass 1  IDiag  1:
 E= -389.155298758102     Delta-E=       -0.000000853728 Rises=F Damp=F
 DIIS: error= 9.13D-06 at cycle   7 NSaved=   7.
 NSaved= 7 IEnMin= 7 EnMin= -389.155298758102     IErMin= 7 ErrMin= 9.13D-06
 ErrMax= 9.13D-06  0.00D+00 EMaxC= 1.00D-01 BMatC= 4.92D-08 BMatP= 5.50D-07
 IDIUse=1 WtCom= 1.00D+00 WtEn= 0.00D+00
 Coeff-Com: -0.555D-04 0.478D-03 0.326D-02-0.106D-01-0.462D-01 0.126D+00
 Coeff-Com:  0.927D+00
 Coeff:     -0.555D-04 0.478D-03 0.326D-02-0.106D-01-0.462D-01 0.126D+00
 Coeff:      0.927D+00
 Gap=     0.500 Goal=   None    Shift=    0.000
 RMSDP=1.70D-06 MaxDP=4.71D-05 DE=-8.54D-07 OVMax= 8.68D-05

 Cycle   8  Pass 1  IDiag  1:
 E= -389.155298843291     Delta-E=       -0.000000085189 Rises=F Damp=F
 DIIS: error= 2.98D-06 at cycle   8 NSaved=   8.
 NSaved= 8 IEnMin= 8 EnMin= -389.155298843291     IErMin= 8 ErrMin= 2.98D-06
 ErrMax= 2.98D-06  0.00D+00 EMaxC= 1.00D-01 BMatC= 4.91D-09 BMatP= 4.92D-08
 IDIUse=1 WtCom= 1.00D+00 WtEn= 0.00D+00
 Coeff-Com: -0.553D-04 0.226D-03 0.195D-02 0.331D-02-0.143D-01-0.848D-01
 Coeff-Com: -0.129D+00 0.122D+01
 Coeff:     -0.553D-04 0.226D-03 0.195D-02 0.331D-02-0.143D-01-0.848D-01
 Coeff:     -0.129D+00 0.122D+01
 Gap=     0.500 Goal=   None    Shift=    0.000
 RMSDP=7.77D-07 MaxDP=2.58D-05 DE=-8.52D-08 OVMax= 5.60D-05

 Cycle   9  Pass 1  IDiag  1:
 E= -389.155298858601     Delta-E=       -0.000000015310 Rises=F Damp=F
 DIIS: error= 1.35D-06 at cycle   9 NSaved=   9.
 NSaved= 9 IEnMin= 9 EnMin= -389.155298858601     IErMin= 9 ErrMin= 1.35D-06
 ErrMax= 1.35D-06  0.00D+00 EMaxC= 1.00D-01 BMatC= 6.53D-10 BMatP= 4.91D-09
 IDIUse=1 WtCom= 1.00D+00 WtEn= 0.00D+00
 Coeff-Com:  0.122D-04-0.777D-04-0.581D-03 0.123D-02 0.420D-02 0.525D-02
 Coeff-Com: -0.723D-01-0.196D+00 0.126D+01
 Coeff:      0.122D-04-0.777D-04-0.581D-03 0.123D-02 0.420D-02 0.525D-02
 Coeff:     -0.723D-01-0.196D+00 0.126D+01
 Gap=     0.500 Goal=   None    Shift=    0.000
 RMSDP=2.99D-07 MaxDP=1.28D-05 DE=-1.53D-08 OVMax= 2.62D-05

 Cycle  10  Pass 1  IDiag  1:
 E= -389.155298860811     Delta-E=       -0.000000002210 Rises=F Damp=F
 DIIS: error= 4.11D-07 at cycle  10 NSaved=  10.
 NSaved=10 IEnMin=10 EnMin= -389.155298860811     IErMin=10 ErrMin= 4.11D-07
 ErrMax= 4.11D-07  0.00D+00 EMaxC= 1.00D-01 BMatC= 8.50D-11 BMatP= 6.53D-10
 IDIUse=1 WtCom= 1.00D+00 WtEn= 0.00D+00
 Coeff-Com:  0.803D-05-0.368D-04-0.304D-03-0.200D-03 0.163D-02 0.134D-01
 Coeff-Com:  0.123D-01-0.192D+00 0.981D-01 0.107D+01
 Coeff:      0.803D-05-0.368D-04-0.304D-03-0.200D-03 0.163D-02 0.134D-01
 Coeff:      0.123D-01-0.192D+00 0.981D-01 0.107D+01
 Gap=     0.500 Goal=   None    Shift=    0.000
 RMSDP=1.08D-07 MaxDP=3.31D-06 DE=-2.21D-09 OVMax= 8.53D-06

 Cycle  11  Pass 1  IDiag  1:
 E= -389.155298861062     Delta-E=       -0.000000000251 Rises=F Damp=F
 DIIS: error= 1.55D-07 at cycle  11 NSaved=  11.
 NSaved=11 IEnMin=11 EnMin= -389.155298861062     IErMin=11 ErrMin= 1.55D-07
 ErrMax= 1.55D-07  0.00D+00 EMaxC= 1.00D-01 BMatC= 5.89D-12 BMatP= 8.50D-11
 IDIUse=1 WtCom= 1.00D+00 WtEn= 0.00D+00
 Coeff-Com: -0.509D-06 0.459D-05 0.337D-04-0.107D-03-0.456D-03 0.985D-03
 Coeff-Com:  0.873D-02 0.493D-02-0.108D+00 0.927D-01 0.100D+01
 Coeff:     -0.509D-06 0.459D-05 0.337D-04-0.107D-03-0.456D-03 0.985D-03
 Coeff:      0.873D-02 0.493D-02-0.108D+00 0.927D-01 0.100D+01
 Gap=     0.500 Goal=   None    Shift=    0.000
 RMSDP=2.30D-08 MaxDP=1.01D-06 DE=-2.51D-10 OVMax= 2.02D-06

 Cycle  12  Pass 1  IDiag  1:
 E= -389.155298861076     Delta-E=       -0.000000000014 Rises=F Damp=F
 DIIS: error= 4.41D-08 at cycle  12 NSaved=  12.
 NSaved=12 IEnMin=12 EnMin= -389.155298861076     IErMin=12 ErrMin= 4.41D-08
 ErrMax= 4.41D-08  0.00D+00 EMaxC= 1.00D-01 BMatC= 9.45D-13 BMatP= 5.89D-12
 IDIUse=1 WtCom= 1.00D+00 WtEn= 0.00D+00
 Coeff-Com: -0.946D-06 0.495D-05 0.398D-04 0.175D-05-0.291D-03-0.124D-02
 Coeff-Com:  0.338D-03 0.206D-01-0.365D-01-0.106D+00 0.192D+00 0.931D+00
 Coeff:     -0.946D-06 0.495D-05 0.398D-04 0.175D-05-0.291D-03-0.124D-02
 Coeff:      0.338D-03 0.206D-01-0.365D-01-0.106D+00 0.192D+00 0.931D+00
 Gap=     0.500 Goal=   None    Shift=    0.000
 RMSDP=9.73D-09 MaxDP=2.60D-07 DE=-1.44D-11 OVMax= 6.37D-07

 SCF Done:  E(RHF) =  -389.155298861     A.U. after   12 cycles
            NFock= 12  Conv=0.97D-08     -V/T= 2.0014
 KE= 3.886245510938D+02 PE=-1.931189619900D+03 EE= 6.401321395784D+02
 Leave Link  502 at Fri Sep 17 14:59:54 2021, MaxMem=   524288000 cpu:              35.6 elap:              35.8
 (Enter /opt/gaussian/g16_legacy/l801.exe)
 ExpMin= 1.61D-01 ExpMax= 3.05D+03 ExpMxC= 4.57D+02 IAcc=3 IRadAn=         5 AccDes= 0.00D+00
 HarFok:  IExCor=  205 AccDes= 0.00D+00 IRadAn=         5 IDoV=-2 UseB2=F ITyADJ=14
 ICtDFT= 12500011 ScaDFX=  1.000000  1.000000  1.000000  1.000000
 Largest valence mixing into a core orbital is  1.97D-04
 Largest core mixing into a valence orbital is  3.52D-05
 Range of M.O.s used for correlation:    11   240
 NBasis=   240 NAE=    39 NBE=    39 NFC=    10 NFV=     0
 NROrb=    230 NOA=    29 NOB=    29 NVA=   201 NVB=   201
 Leave Link  801 at Fri Sep 17 14:59:55 2021, MaxMem=   524288000 cpu:               1.8 elap:               1.8
 (Enter /opt/gaussian/g16_legacy/l906.exe)
 Frozen-core derivative calculation, NFC=  10 NFV=   0.
 FulOut=F Deriv=T AODrv=T NAtomX=    28
   MMem=          89  MDisk=          29 MDiskD=          29
  W3Min=     2246400 MinDsk=     2795480 NBas6D=         240
 NBas2D=       29244    NTT=       28920    LW2=     2040000
    MDV=   523629461 MDiskM=       30186 NBas2p=       24099
 Fully direct method using O(ONN) memory.
 IMap=   1   2   3   4   5   6   7   8   9  10  11  12  13  14  15  16  17  18  19  20
 IMap=  21  22  23  24  25  26  27  28  29  30  31  32  33  34  35  36  37  38  39
 JobTyp=1 Pass  1:  I=  11 to  39 NPSUse=  1 ParTrn=F ParDer=F DoDerP=T.
 Spin components of T(2) and E(2):
     alpha-alpha T2 =       0.5711545934D-01 E2=     -0.1637344772D+00
     alpha-beta  T2 =       0.3617436022D+00 E2=     -0.1089192419D+01
     beta-beta   T2 =       0.5711545934D-01 E2=     -0.1637344772D+00
 The integrals were generated   1 times.
 ANorm=    0.1214896918D+01
 E2 =    -0.1416661373D+01 EUMP2 =    -0.39057196023408D+03
 Leave Link  906 at Fri Sep 17 15:04:22 2021, MaxMem=   524288000 cpu:             266.6 elap:             266.7
 (Enter /opt/gaussian/g16_legacy/l1002.exe)
 Minotr:  Closed shell wavefunction.
          Computing MP2/KS-MP2 derivatives.
          Using Z-Vector for PSCF gradient.
          Skipping F1 and S1 gradient terms here.
          IDoAtm=1111111111111111111111111111
          Frozen-core window.
          Direct CPHF calculation.
          Differentiating once with respect to electric field.
                with respect to dipole field.
          Differentiating once with respect to nuclear coordinates.
          Requested convergence is 1.0D-10 RMS, and 1.0D-09 maximum.
          NewPWx=F KeepS1=T KeepF1=T KeepIn=T MapXYZ=F SortEE=F KeepMc=T.
 Keep R1 ints in memory in canonical form, NReq=425201067.
 FoFCou: FMM=F IPFlag=           0 FMFlag=           0 FMFlg1=           0
         NFxFlg=           0 DoJE=F BraDBF=F KetDBF=F FulRan=T
         wScrn=  0.000000 ICntrl=       600 IOpCl=  0 I1Cent=           0 NGrid=           0
         NMat0=    1 NMatS0=  28920 NMatT0=    0 NMatD0=    1 NMtDS0=    0 NMtDT0=    0
 Symmetry not used in FoFCou.
 Two-electron integral symmetry not used.
          MDV=     524288000 using IRadAn=       5.
          Solving linear equations separately, MaxMat=       0.
          There are     1 degrees of freedom in the 1st order CPHF.  IDoFFX=0 NUNeed=     1.
 LinEq1:  Iter=  0 NonCon=     1 RMS=2.55D-03 Max=4.26D-02 NDo=     1
 AX will form     1 AO Fock derivatives at one time.
 LinEq1:  Iter=  1 NonCon=     1 RMS=6.89D-04 Max=1.12D-02 NDo=     1
 LinEq1:  Iter=  2 NonCon=     1 RMS=1.61D-04 Max=4.13D-03 NDo=     1
 LinEq1:  Iter=  3 NonCon=     1 RMS=4.42D-05 Max=5.12D-04 NDo=     1
 LinEq1:  Iter=  4 NonCon=     1 RMS=1.99D-05 Max=8.26D-04 NDo=     1
 LinEq1:  Iter=  5 NonCon=     1 RMS=4.81D-06 Max=8.80D-05 NDo=     1
 LinEq1:  Iter=  6 NonCon=     1 RMS=1.45D-06 Max=2.33D-05 NDo=     1
 LinEq1:  Iter=  7 NonCon=     1 RMS=4.00D-07 Max=4.14D-06 NDo=     1
 LinEq1:  Iter=  8 NonCon=     1 RMS=8.45D-08 Max=1.47D-06 NDo=     1
 LinEq1:  Iter=  9 NonCon=     1 RMS=2.22D-08 Max=5.48D-07 NDo=     1
 LinEq1:  Iter= 10 NonCon=     1 RMS=7.41D-09 Max=1.95D-07 NDo=     1
 LinEq1:  Iter= 11 NonCon=     1 RMS=2.37D-09 Max=7.30D-08 NDo=     1
 LinEq1:  Iter= 12 NonCon=     1 RMS=8.60D-10 Max=1.37D-08 NDo=     1
 LinEq1:  Iter= 13 NonCon=     1 RMS=2.39D-10 Max=3.40D-09 NDo=     1
 LinEq1:  Iter= 14 NonCon=     0 RMS=5.52D-11 Max=6.93D-10 NDo=     1
 Linear equations converged to 1.000D-10 1.000D-09 after    14 iterations.
 End of Minotr F.D. properties file   721 does not exist.
 End of Minotr F.D. properties file   722 does not exist.
 End of Minotr F.D. properties file   788 does not exist.
 Leave Link 1002 at Fri Sep 17 15:05:02 2021, MaxMem=   524288000 cpu:              39.7 elap:              39.7
 (Enter /opt/gaussian/g16_legacy/l601.exe)
 Copying SCF densities to generalized density rwf, IOpCl= 0 IROHF=0.

 **********************************************************************

            Population analysis using the SCF density.

 **********************************************************************

 Orbital symmetries:
       Occupied  (A) (A) (A) (A) (A) (A) (A) (A) (A) (A) (A) (A)
                 (A) (A) (A) (A) (A) (A) (A) (A) (A) (A) (A) (A)
                 (A) (A) (A) (A) (A) (A) (A) (A) (A) (A) (A) (A)
                 (A) (A) (A)
       Virtual   (A) (A) (A) (A) (A) (A) (A) (A) (A) (A) (A) (A)
                 (A) (A) (A) (A) (A) (A) (A) (A) (A) (A) (A) (A)
                 (A) (A) (A) (A) (A) (A) (A) (A) (A) (A) (A) (A)
                 (A) (A) (A) (A) (A) (A) (A) (A) (A) (A) (A) (A)
                 (A) (A) (A) (A) (A) (A) (A) (A) (A) (A) (A) (A)
                 (A) (A) (A) (A) (A) (A) (A) (A) (A) (A) (A) (A)
                 (A) (A) (A) (A) (A) (A) (A) (A) (A) (A) (A) (A)
                 (A) (A) (A) (A) (A) (A) (A) (A) (A) (A) (A) (A)
                 (A) (A) (A) (A) (A) (A) (A) (A) (A) (A) (A) (A)
                 (A) (A) (A) (A) (A) (A) (A) (A) (A) (A) (A) (A)
                 (A) (A) (A) (A) (A) (A) (A) (A) (A) (A) (A) (A)
                 (A) (A) (A) (A) (A) (A) (A) (A) (A) (A) (A) (A)
                 (A) (A) (A) (A) (A) (A) (A) (A) (A) (A) (A) (A)
                 (A) (A) (A) (A) (A) (A) (A) (A) (A) (A) (A) (A)
                 (A) (A) (A) (A) (A) (A) (A) (A) (A) (A) (A) (A)
                 (A) (A) (A) (A) (A) (A) (A) (A) (A) (A) (A) (A)
                 (A) (A) (A) (A) (A) (A) (A) (A) (A)
 The electronic state is 1-A.
 Alpha  occ. eigenvalues --  -11.23059 -11.22492 -11.21994 -11.21919 -11.21895
 Alpha  occ. eigenvalues --  -11.21650 -11.21538 -11.21499 -11.21456 -11.21436
 Alpha  occ. eigenvalues --   -1.10615  -1.08328  -1.01892  -0.98024  -0.93647
 Alpha  occ. eigenvalues --   -0.91775  -0.86739  -0.82690  -0.70609  -0.69413
 Alpha  occ. eigenvalues --   -0.64401  -0.61335  -0.60398  -0.59007  -0.58077
 Alpha  occ. eigenvalues --   -0.56879  -0.55470  -0.55040  -0.53552  -0.51977
 Alpha  occ. eigenvalues --   -0.51778  -0.51259  -0.50452  -0.49763  -0.47237
 Alpha  occ. eigenvalues --   -0.46643  -0.44234  -0.33255  -0.31613
 Alpha virt. eigenvalues --    0.18419   0.19608   0.22268   0.24508   0.24867
 Alpha virt. eigenvalues --    0.27280   0.28582   0.29021   0.30342   0.30570
 Alpha virt. eigenvalues --    0.31452   0.32295   0.32993   0.33605   0.33919
 Alpha virt. eigenvalues --    0.34862   0.36106   0.37176   0.38359   0.39994
 Alpha virt. eigenvalues --    0.40807   0.41938   0.42662   0.44321   0.45311
 Alpha virt. eigenvalues --    0.51885   0.54070   0.61044   0.62385   0.69420
 Alpha virt. eigenvalues --    0.71420   0.71712   0.74324   0.75991   0.76600
 Alpha virt. eigenvalues --    0.77889   0.78836   0.80150   0.80438   0.82525
 Alpha virt. eigenvalues --    0.82864   0.85807   0.89227   0.90311   0.92127
 Alpha virt. eigenvalues --    0.93066   0.94945   0.96558   0.97592   0.99409
 Alpha virt. eigenvalues --    0.99666   1.01112   1.02714   1.04772   1.06342
 Alpha virt. eigenvalues --    1.07246   1.08350   1.08464   1.10883   1.12202
 Alpha virt. eigenvalues --    1.13085   1.13495   1.14142   1.15109   1.15427
 Alpha virt. eigenvalues --    1.15972   1.16404   1.17990   1.18283   1.20093
 Alpha virt. eigenvalues --    1.20924   1.22025   1.22904   1.24887   1.26884
 Alpha virt. eigenvalues --    1.29779   1.39908   1.40850   1.44072   1.45167
 Alpha virt. eigenvalues --    1.46114   1.53929   1.55258   1.57486   1.59003
 Alpha virt. eigenvalues --    1.61320   1.62901   1.65441   1.68693   1.70718
 Alpha virt. eigenvalues --    1.74998   1.83303   1.90947   1.92634   1.95887
 Alpha virt. eigenvalues --    1.98118   2.01342   2.02512   2.04962   2.08418
 Alpha virt. eigenvalues --    2.09279   2.11238   2.11879   2.13549   2.13759
 Alpha virt. eigenvalues --    2.15744   2.17935   2.19179   2.23538   2.27676
 Alpha virt. eigenvalues --    2.27928   2.30154   2.32118   2.34932   2.35557
 Alpha virt. eigenvalues --    2.35638   2.35786   2.39416   2.39798   2.40225
 Alpha virt. eigenvalues --    2.41257   2.41847   2.42898   2.44987   2.45576
 Alpha virt. eigenvalues --    2.47185   2.49015   2.49668   2.49765   2.53205
 Alpha virt. eigenvalues --    2.56184   2.58405   2.60484   2.62612   2.64593
 Alpha virt. eigenvalues --    2.66045   2.67905   2.71569   2.72557   2.74074
 Alpha virt. eigenvalues --    2.76097   2.77699   2.80999   2.82552   2.84075
 Alpha virt. eigenvalues --    2.86958   2.90351   2.92352   2.93721   2.93882
 Alpha virt. eigenvalues --    2.97259   2.98948   3.00895   3.02348   3.04613
 Alpha virt. eigenvalues --    3.06566   3.07047   3.09533   3.11565   3.16240
 Alpha virt. eigenvalues --    3.17175   3.17505   3.19751   3.20511   3.20975
 Alpha virt. eigenvalues --    3.22293   3.25235   3.26473   3.27443   3.37028
 Alpha virt. eigenvalues --    3.39003   3.44379   3.45749   3.55484   3.57318
 Alpha virt. eigenvalues --    3.58501   3.60432   3.67987   3.73339   3.78349
 Alpha virt. eigenvalues --    3.78759   3.80294   3.81204   3.82240   3.82862
 Alpha virt. eigenvalues --    3.83544   3.85734   3.87949   3.89128   3.90865
 Alpha virt. eigenvalues --    3.96060   4.59177   4.62294   4.74494   4.82467
 Alpha virt. eigenvalues --    4.89198   4.92414   4.93232   5.07346   5.10306
 Alpha virt. eigenvalues --    5.16933
          Condensed to atoms (all electrons):
               1          2          3          4          5          6
     1  C    5.000752   0.414386   0.412396   0.339582  -0.058830  -0.003457
     2  H    0.414386   0.576742  -0.030320  -0.040671   0.003305  -0.000014
     3  H    0.412396  -0.030320   0.583781  -0.045111  -0.004633   0.002508
     4  C    0.339582  -0.040671  -0.045111   4.957271   0.350743  -0.043209
     5  C   -0.058830   0.003305  -0.004633   0.350743   4.895148   0.397605
     6  H   -0.003457  -0.000014   0.002508  -0.043209   0.397605   0.593353
     7  H   -0.000423  -0.000036  -0.000305  -0.046043   0.399665  -0.035165
     8  H    0.003653  -0.000107   0.000093  -0.041416   0.406588  -0.027584
     9  C   -0.043510  -0.002304   0.001833   0.696636  -0.045819  -0.000478
    10  H    0.003081   0.000055  -0.000112  -0.036439  -0.006438   0.000245
    11  C   -0.007011  -0.002042   0.000131  -0.050642   0.003399  -0.000113
    12  H    0.000233  -0.000035  -0.000010   0.000512  -0.000102  -0.000004
    13  H    0.000217   0.000157   0.000029  -0.001299  -0.000114   0.000021
    14  H   -0.002040  -0.001243   0.000010  -0.000449   0.000090  -0.000001
    15  C    0.000487  -0.000011   0.000129  -0.000018  -0.000017  -0.000002
    16  H   -0.000041  -0.000000   0.000012   0.000001  -0.000000   0.000000
    17  H    0.000071  -0.000000  -0.000066  -0.000002   0.000000   0.000000
    18  H    0.000080  -0.000011   0.000148  -0.000063   0.000095   0.000005
    19  C   -0.002758   0.000602   0.000934  -0.000035   0.000007  -0.000001
    20  C   -0.000105  -0.000001  -0.000032   0.000001  -0.000000   0.000000
    21  H   -0.000004   0.000000   0.000001   0.000000  -0.000000  -0.000000
    22  H    0.000021  -0.000001  -0.000005  -0.000000   0.000000  -0.000000
    23  H   -0.000002   0.000002  -0.000002   0.000000  -0.000000  -0.000000
    24  C   -0.062571  -0.001371  -0.000485   0.006100  -0.000075   0.000000
    25  H   -0.000349   0.001132   0.000185  -0.000118  -0.000002   0.000000
    26  C    0.325386  -0.041399  -0.042907  -0.056881  -0.000804   0.000024
    27  H   -0.040035   0.004048  -0.002359  -0.002268  -0.000486   0.000076
    28  H   -0.045282  -0.002682   0.004395  -0.001366   0.000304   0.000006
               7          8          9         10         11         12
     1  C   -0.000423   0.003653  -0.043510   0.003081  -0.007011   0.000233
     2  H   -0.000036  -0.000107  -0.002304   0.000055  -0.002042  -0.000035
     3  H   -0.000305   0.000093   0.001833  -0.000112   0.000131  -0.000010
     4  C   -0.046043  -0.041416   0.696636  -0.036439  -0.050642   0.000512
     5  C    0.399665   0.406588  -0.045819  -0.006438   0.003399  -0.000102
     6  H   -0.035165  -0.027584  -0.000478   0.000245  -0.000113  -0.000004
     7  H    0.598036  -0.028121  -0.000963   0.000130  -0.000102   0.000015
     8  H   -0.028121   0.570231  -0.002764   0.002175   0.000140  -0.000008
     9  C   -0.000963  -0.002764   4.940017   0.404575   0.338339  -0.042713
    10  H    0.000130   0.002175   0.404575   0.559829  -0.043631  -0.002622
    11  C   -0.000102   0.000140   0.338339  -0.043631   4.903483   0.402929
    12  H    0.000015  -0.000008  -0.042713  -0.002622   0.402929   0.585774
    13  H   -0.000005  -0.000004  -0.044541  -0.000243   0.400270  -0.033309
    14  H    0.000001   0.000004  -0.041982   0.003342   0.408021  -0.029452
    15  C   -0.000029   0.000000  -0.000000  -0.000000  -0.000000  -0.000000
    16  H   -0.000000   0.000000   0.000000   0.000000   0.000000  -0.000000
    17  H   -0.000001  -0.000000   0.000000  -0.000000   0.000000   0.000000
    18  H    0.000222  -0.000001  -0.000001   0.000000  -0.000000   0.000000
    19  C    0.000017  -0.000000  -0.000002   0.000000   0.000000   0.000000
    20  C   -0.000000   0.000000  -0.000000   0.000000   0.000000  -0.000000
    21  H    0.000000   0.000000  -0.000000   0.000000  -0.000000  -0.000000
    22  H    0.000000  -0.000000   0.000000  -0.000000  -0.000000   0.000000
    23  H   -0.000000  -0.000000   0.000000   0.000000  -0.000000   0.000000
    24  C   -0.000082   0.000002  -0.000010   0.000002  -0.000022  -0.000002
    25  H   -0.000000   0.000000   0.000009  -0.000000  -0.000002  -0.000000
    26  C    0.000832  -0.000094  -0.003333  -0.000120   0.000493   0.000079
    27  H   -0.000581  -0.000024   0.000498   0.000002  -0.000024   0.000000
    28  H    0.000016  -0.000006   0.000946  -0.000032   0.000106  -0.000059
              13         14         15         16         17         18
     1  C    0.000217  -0.002040   0.000487  -0.000041   0.000071   0.000080
     2  H    0.000157  -0.001243  -0.000011  -0.000000  -0.000000  -0.000011
     3  H    0.000029   0.000010   0.000129   0.000012  -0.000066   0.000148
     4  C   -0.001299  -0.000449  -0.000018   0.000001  -0.000002  -0.000063
     5  C   -0.000114   0.000090  -0.000017  -0.000000   0.000000   0.000095
     6  H    0.000021  -0.000001  -0.000002   0.000000   0.000000   0.000005
     7  H   -0.000005   0.000001  -0.000029  -0.000000  -0.000001   0.000222
     8  H   -0.000004   0.000004   0.000000   0.000000  -0.000000  -0.000001
     9  C   -0.044541  -0.041982  -0.000000   0.000000   0.000000  -0.000001
    10  H   -0.000243   0.003342  -0.000000   0.000000  -0.000000   0.000000
    11  C    0.400270   0.408021  -0.000000   0.000000   0.000000  -0.000000
    12  H   -0.033309  -0.029452  -0.000000  -0.000000   0.000000   0.000000
    13  H    0.585296  -0.027464   0.000000   0.000000  -0.000000  -0.000000
    14  H   -0.027464   0.575217   0.000000   0.000000  -0.000000   0.000000
    15  C    0.000000   0.000000   4.906879   0.398563   0.402436   0.405944
    16  H    0.000000   0.000000   0.398563   0.583098  -0.033084  -0.026879
    17  H   -0.000000  -0.000000   0.402436  -0.033084   0.585552  -0.029646
    18  H   -0.000000   0.000000   0.405944  -0.026879  -0.029646   0.570735
    19  C   -0.000000   0.000001   0.348915  -0.043923  -0.043839  -0.036967
    20  C    0.000000  -0.000000  -0.065377  -0.001681  -0.003426   0.003707
    21  H    0.000000   0.000000  -0.001092   0.002542  -0.000508  -0.000024
    22  H   -0.000000  -0.000000  -0.002145  -0.000367   0.002838  -0.000072
    23  H   -0.000000   0.000000   0.003697  -0.000080   0.000012  -0.000109
    24  C    0.000002   0.000034  -0.043608  -0.000743   0.000408  -0.002888
    25  H   -0.000000   0.000035   0.003360  -0.000124  -0.000112   0.000053
    26  C   -0.000045  -0.000174  -0.007186   0.000191   0.000276  -0.002349
    27  H   -0.000000  -0.000005  -0.001878   0.000040  -0.000035  -0.001473
    28  H    0.000018   0.000114   0.000145   0.000033  -0.000012   0.000041
              19         20         21         22         23         24
     1  C   -0.002758  -0.000105  -0.000004   0.000021  -0.000002  -0.062571
     2  H    0.000602  -0.000001   0.000000  -0.000001   0.000002  -0.001371
     3  H    0.000934  -0.000032   0.000001  -0.000005  -0.000002  -0.000485
     4  C   -0.000035   0.000001   0.000000  -0.000000   0.000000   0.006100
     5  C    0.000007  -0.000000  -0.000000   0.000000  -0.000000  -0.000075
     6  H   -0.000001   0.000000  -0.000000  -0.000000  -0.000000   0.000000
     7  H    0.000017  -0.000000   0.000000   0.000000  -0.000000  -0.000082
     8  H   -0.000000   0.000000   0.000000  -0.000000  -0.000000   0.000002
     9  C   -0.000002  -0.000000  -0.000000   0.000000   0.000000  -0.000010
    10  H    0.000000   0.000000   0.000000  -0.000000   0.000000   0.000002
    11  C    0.000000   0.000000  -0.000000  -0.000000  -0.000000  -0.000022
    12  H    0.000000  -0.000000  -0.000000   0.000000   0.000000  -0.000002
    13  H   -0.000000   0.000000   0.000000  -0.000000  -0.000000   0.000002
    14  H    0.000001  -0.000000   0.000000  -0.000000   0.000000   0.000034
    15  C    0.348915  -0.065377  -0.001092  -0.002145   0.003697  -0.043608
    16  H   -0.043923  -0.001681   0.002542  -0.000367  -0.000080  -0.000743
    17  H   -0.043839  -0.003426  -0.000508   0.002838   0.000012   0.000408
    18  H   -0.036967   0.003707  -0.000024  -0.000072  -0.000109  -0.002888
    19  C    4.920165   0.351815  -0.045806  -0.044200  -0.040405   0.695506
    20  C    0.351815   4.903456   0.399276   0.396994   0.405374  -0.044524
    21  H   -0.045806   0.399276   0.593101  -0.034893  -0.027580  -0.001111
    22  H   -0.044200   0.396994  -0.034893   0.594231  -0.027347  -0.000623
    23  H   -0.040405   0.405374  -0.027580  -0.027347   0.568077  -0.002346
    24  C    0.695506  -0.044524  -0.001111  -0.000623  -0.002346   4.962250
    25  H   -0.035973  -0.006706   0.000153   0.000223   0.002204   0.403002
    26  C   -0.048868   0.003141  -0.000123  -0.000086   0.000141   0.341687
    27  H    0.000558   0.000062   0.000004  -0.000003   0.000006  -0.043140
    28  H    0.000972  -0.000098   0.000012  -0.000002  -0.000011  -0.044010
              25         26         27         28
     1  C   -0.000349   0.325386  -0.040035  -0.045282
     2  H    0.001132  -0.041399   0.004048  -0.002682
     3  H    0.000185  -0.042907  -0.002359   0.004395
     4  C   -0.000118  -0.056881  -0.002268  -0.001366
     5  C   -0.000002  -0.000804  -0.000486   0.000304
     6  H    0.000000   0.000024   0.000076   0.000006
     7  H   -0.000000   0.000832  -0.000581   0.000016
     8  H    0.000000  -0.000094  -0.000024  -0.000006
     9  C    0.000009  -0.003333   0.000498   0.000946
    10  H   -0.000000  -0.000120   0.000002  -0.000032
    11  C   -0.000002   0.000493  -0.000024   0.000106
    12  H   -0.000000   0.000079   0.000000  -0.000059
    13  H   -0.000000  -0.000045  -0.000000   0.000018
    14  H    0.000035  -0.000174  -0.000005   0.000114
    15  C    0.003360  -0.007186  -0.001878   0.000145
    16  H   -0.000124   0.000191   0.000040   0.000033
    17  H   -0.000112   0.000276  -0.000035  -0.000012
    18  H    0.000053  -0.002349  -0.001473   0.000041
    19  C   -0.035973  -0.048868   0.000558   0.000972
    20  C   -0.006706   0.003141   0.000062  -0.000098
    21  H    0.000153  -0.000123   0.000004   0.000012
    22  H    0.000223  -0.000086  -0.000003  -0.000002
    23  H    0.002204   0.000141   0.000006  -0.000011
    24  C    0.403002   0.341687  -0.043140  -0.044010
    25  H    0.558271  -0.041949   0.003304  -0.003531
    26  C   -0.041949   4.978479   0.414991   0.415014
    27  H    0.003304   0.414991   0.579650  -0.029800
    28  H   -0.003531   0.415014  -0.029800   0.581222
 Mulliken charges:
               1
     1  C   -0.233925
     2  H    0.121820
     3  H    0.119761
     4  C    0.015183
     5  C   -0.339629
     6  H    0.116184
     7  H    0.112923
     8  H    0.117243
     9  C   -0.154432
    10  H    0.116200
    11  C   -0.353721
    12  H    0.118776
    13  H    0.121017
    14  H    0.115940
    15  C   -0.349193
    16  H    0.122441
    17  H    0.119137
    18  H    0.119453
    19  C    0.023285
    20  C   -0.341876
    21  H    0.116052
    22  H    0.115437
    23  H    0.118369
    24  C   -0.161381
    25  H    0.116936
    26  C   -0.234418
    27  H    0.118872
    28  H    0.123545
 Sum of Mulliken charges =  -0.00000
 Mulliken charges with hydrogens summed into heavy atoms:
               1
     1  C    0.007657
     4  C    0.015183
     5  C    0.006721
     9  C   -0.038232
    11  C    0.002012
    15  C    0.011837
    19  C    0.023285
    20  C    0.007982
    24  C   -0.044445
    26  C    0.007999
 Electronic spatial extent (au):  <R**2>=           2545.0029
 Charge=             -0.0000 electrons
 Dipole moment (field-independent basis, Debye):
    X=              0.3491    Y=              0.1467    Z=              0.0261  Tot=              0.3796
 Quadrupole moment (field-independent basis, Debye-Ang):
   XX=            -63.8819   YY=            -63.9190   ZZ=            -67.2164
   XY=              0.9686   XZ=              0.9094   YZ=             -0.2407
 Traceless Quadrupole moment (field-independent basis, Debye-Ang):
   XX=              1.1239   YY=              1.0868   ZZ=             -2.2106
   XY=              0.9686   XZ=              0.9094   YZ=             -0.2407
 Octapole moment (field-independent basis, Debye-Ang**2):
  XXX=              0.9216  YYY=             -2.8086  ZZZ=              0.8869  XYY=             -0.2794
  XXY=              1.7938  XXZ=             -2.7173  XZZ=              1.8059  YZZ=              1.3753
  YYZ=              0.5279  XYZ=             -0.3793
 Hexadecapole moment (field-independent basis, Debye-Ang**3):
 XXXX=          -2708.1333 YYYY=           -641.3449 ZZZZ=           -161.4628 XXXY=              7.6815
 XXXZ=             11.8795 YYYX=             -8.1745 YYYZ=             -1.4932 ZZZX=              2.8148
 ZZZY=              1.9634 XXYY=           -565.0485 XXZZ=           -492.0525 YYZZ=           -130.8313
 XXYZ=             -3.0883 YYXZ=              1.7829 ZZXY=              8.1559
 N-N= 5.132776303664D+02 E-N=-1.931189618896D+03  KE= 3.886245510938D+02
 No NMR shielding tensors so no spin-rotation constants.
 Leave Link  601 at Fri Sep 17 15:05:02 2021, MaxMem=   524288000 cpu:               0.3 elap:               0.3
 (Enter /opt/gaussian/g16_legacy/l701.exe)
 ... and contract with generalized density number  2.
 Compute integral first derivatives.
 Leave Link  701 at Fri Sep 17 15:05:03 2021, MaxMem=   524288000 cpu:               0.3 elap:               0.3
 (Enter /opt/gaussian/g16_legacy/l702.exe)
 L702 exits ... SP integral derivatives will be done elsewhere.
 Leave Link  702 at Fri Sep 17 15:05:03 2021, MaxMem=   524288000 cpu:               0.1 elap:               0.1
 (Enter /opt/gaussian/g16_legacy/l703.exe)
 Integral derivatives from FoFJK, PRISM(SPDF).
 Compute integral first derivatives, UseDBF=F ICtDFT=           0.
 Calling FoFJK, ICntrl=  10002127 FMM=F ISym2X=0 I1Cent= 0 IOpClX= 0 NMat=1 NMatS=1 NMatT=0.
 FoFJK:  IHMeth= 1 ICntrl=10002127 DoSepK=F KAlg= 0 I1Cent=           0 FoldK=F
 IRaf=         0 NMat=       1 IRICut=       1 DoRegI=T DoRafI=F ISym2E= 0 IDoP0=0 IntGTp=1.
 FoFCou: FMM=F IPFlag=           0 FMFlag=      100000 FMFlg1=         800
         NFxFlg=           0 DoJE=F BraDBF=F KetDBF=F FulRan=T
         wScrn=  0.000000 ICntrl=  10002127 IOpCl=  0 I1Cent=           0 NGrid=           0
         NMat0=    1 NMatS0=      1 NMatT0=    0 NMatD0=    1 NMtDS0=    0 NMtDT0=    0
 Symmetry not used in FoFCou.
 Leave Link  703 at Fri Sep 17 15:05:37 2021, MaxMem=   524288000 cpu:              34.2 elap:              34.2
 (Enter /opt/gaussian/g16_legacy/l716.exe)
 Dipole        = 1.00091396D-01 3.50045856D-02 3.58840824D-03
 ***** Axes restored to original set *****
 -------------------------------------------------------------------
 Center     Atomic                   Forces (Hartrees/Bohr)
 Number     Number              X              Y              Z
 -------------------------------------------------------------------
      1        6           0.008424959   -0.001566725   -0.002896556
      2        1          -0.000526132    0.002318980    0.003184911
      3        1          -0.000047936    0.000928248    0.004320386
      4        6           0.003203345    0.000308984   -0.005232519
      5        6           0.002773106    0.001083456    0.000536168
      6        1          -0.001360872    0.001187589    0.002853693
      7        1          -0.000288331    0.000211054   -0.003283535
      8        1          -0.002848996   -0.002936700    0.000696305
      9        6          -0.002423246    0.002015774    0.001942842
     10        1          -0.003261207    0.001146042   -0.000632840
     11        6          -0.000921675   -0.002471151    0.000940989
     12        1          -0.000054970   -0.001729739   -0.002988136
     13        1          -0.000305739   -0.001376646    0.003103810
     14        1           0.002043987    0.002257744   -0.001656812
     15        6           0.003684574    0.002921257   -0.000179624
     16        1          -0.000537237    0.000228756   -0.003110893
     17        1          -0.000778933   -0.000413191    0.003588313
     18        1          -0.001594963   -0.002726598    0.001555733
     19        6           0.001638835   -0.004902044   -0.001922910
     20        6           0.001084010   -0.003234632    0.000046093
     21        1          -0.000496565   -0.000148223   -0.003311442
     22        1          -0.001660896    0.000735068    0.003022050
     23        1           0.000893733    0.004240604   -0.000407283
     24        6           0.001316786    0.002337258    0.004326421
     25        1          -0.002600546    0.001728722   -0.001301081
     26        6          -0.006815773   -0.001107563    0.003360141
     27        1           0.000066839   -0.001891208   -0.002612984
     28        1           0.001393845    0.000854884   -0.003941242
 -------------------------------------------------------------------
 Cartesian Forces:  Max     0.008424959 RMS     0.002537515
 Leave Link  716 at Fri Sep 17 15:05:37 2021, MaxMem=   524288000 cpu:               0.1 elap:               0.1
 (Enter /opt/gaussian/g16_legacy/l103.exe)

 GradGradGradGradGradGradGradGradGradGradGradGradGradGradGradGradGradGrad
 Berny optimization.
 FormGI is forming the generalized inverse of G from B-inverse, IUseBI=4.
 Internal  Forces:  Max     0.004135740 RMS     0.001892258
 Search for a local minimum.
 Step number   1 out of a maximum of  138
 All quantities printed in internal units (Hartrees-Bohrs-Radians)
 RMS Force = .18923D-02 SwitMx=.10000D-02 MixMth= 1
 Mixed Optimization -- RFO/linear search
 Second derivative matrix not updated -- first step.
 ITU=  0
     Eigenvalues ---    0.00342   0.00571   0.00667   0.00680   0.00693
     Eigenvalues ---    0.00716   0.00819   0.01219   0.01287   0.01570
     Eigenvalues ---    0.01642   0.02780   0.02785   0.04014   0.04132
     Eigenvalues ---    0.05350   0.05403   0.06981   0.07039   0.07088
     Eigenvalues ---    0.07092   0.07265   0.07300   0.07347   0.07506
     Eigenvalues ---    0.09279   0.09365   0.12770   0.12846   0.15999
     Eigenvalues ---    0.15999   0.16000   0.16000   0.16000   0.16000
     Eigenvalues ---    0.16000   0.16000   0.16000   0.16000   0.16000
     Eigenvalues ---    0.16000   0.16000   0.16000   0.21860   0.21867
     Eigenvalues ---    0.22000   0.22000   0.24993   0.24996   0.24998
     Eigenvalues ---    0.24999   0.29232   0.30876   0.31605   0.31704
     Eigenvalues ---    0.31807   0.31982   0.32802   0.33866   0.33930
     Eigenvalues ---    0.34063   0.34190   0.34220   0.34227   0.34248
     Eigenvalues ---    0.34250   0.34251   0.34258   0.34270   0.34296
     Eigenvalues ---    0.34302   0.34336   0.34535   0.34550   0.34787
     Eigenvalues ---    0.34855   0.55497   0.55586
 RFO step:  Lambda=-2.86550437D-03 EMin= 3.41596094D-03
 Linear search not attempted -- first point.
 Iteration  1 RMS(Cart)=  0.04042500 RMS(Int)=  0.00070766
 Iteration  2 RMS(Cart)=  0.00101737 RMS(Int)=  0.00015593
 Iteration  3 RMS(Cart)=  0.00000056 RMS(Int)=  0.00015593
 ITry= 1 IFail=0 DXMaxC= 1.44D-01 DCOld= 1.00D+10 DXMaxT= 3.00D-01 DXLimC= 3.00D+00 Rises=F
 Variable       Old X    -DE/DX   Delta X   Delta X   Delta X     New X
                                 (Linear)    (Quad)   (Total)
    R1        2.07224  -0.00294   0.00000  -0.00855  -0.00855   2.06369
    R2        2.07557  -0.00309   0.00000  -0.00904  -0.00904   2.06653
    R3        2.86250  -0.00346   0.00000  -0.01111  -0.01111   2.85138
    R4        2.89521   0.00158   0.00000   0.00534   0.00534   2.90055
    R5        2.84872  -0.00063   0.00000  -0.00196  -0.00196   2.84676
    R6        2.54693  -0.00392   0.00000  -0.00702  -0.00702   2.53991
    R7        2.06914  -0.00216   0.00000  -0.00625  -0.00625   2.06289
    R8        2.06824  -0.00167   0.00000  -0.00482  -0.00482   2.06342
    R9        2.06961  -0.00375   0.00000  -0.01087  -0.01087   2.05874
   R10        2.05910  -0.00213   0.00000  -0.00606  -0.00606   2.05304
   R11        2.82701   0.00308   0.00000   0.00931   0.00931   2.83632
   R12        2.06877  -0.00261   0.00000  -0.00755  -0.00755   2.06121
   R13        2.06766  -0.00159   0.00000  -0.00459  -0.00459   2.06307
   R14        2.06412  -0.00307   0.00000  -0.00881  -0.00881   2.05532
   R15        2.06898  -0.00193   0.00000  -0.00558  -0.00558   2.06340
   R16        2.07011  -0.00272   0.00000  -0.00789  -0.00789   2.06222
   R17        2.06436  -0.00295   0.00000  -0.00848  -0.00848   2.05588
   R18        2.84176  -0.00044   0.00000  -0.00137  -0.00137   2.84039
   R19        2.84689  -0.00075   0.00000  -0.00236  -0.00236   2.84454
   R20        2.54615  -0.00318   0.00000  -0.00569  -0.00569   2.54046
   R21        2.06908  -0.00197   0.00000  -0.00571  -0.00571   2.06337
   R22        2.06910  -0.00199   0.00000  -0.00576  -0.00576   2.06334
   R23        2.06948  -0.00396   0.00000  -0.01147  -0.01147   2.05801
   R24        2.06021  -0.00206   0.00000  -0.00588  -0.00588   2.05433
   R25        2.84498  -0.00139   0.00000  -0.00432  -0.00432   2.84066
   R26        2.06834  -0.00237   0.00000  -0.00684  -0.00684   2.06150
   R27        2.07448  -0.00277   0.00000  -0.00811  -0.00811   2.06637
    A1        1.83007   0.00205   0.00000   0.02210   0.02193   1.85200
    A2        1.93126  -0.00017   0.00000   0.00559   0.00561   1.93687
    A3        1.91961  -0.00200   0.00000  -0.01360  -0.01364   1.90598
    A4        1.90144  -0.00009   0.00000   0.00115   0.00115   1.90259
    A5        1.91810  -0.00274   0.00000  -0.02402  -0.02405   1.89405
    A6        1.95892   0.00285   0.00000   0.00929   0.00933   1.96825
    A7        2.00701   0.00175   0.00000   0.00725   0.00671   2.01372
    A8        2.17229  -0.00414   0.00000  -0.01598  -0.01649   2.15579
    A9        2.10368   0.00240   0.00000   0.00988   0.00932   2.11301
   A10        1.92470   0.00166   0.00000   0.00911   0.00913   1.93383
   A11        1.92856   0.00226   0.00000   0.01207   0.01209   1.94065
   A12        1.95918  -0.00265   0.00000  -0.01329  -0.01325   1.94593
   A13        1.89475  -0.00306   0.00000  -0.02462  -0.02462   1.87014
   A14        1.87754   0.00111   0.00000   0.01036   0.01039   1.88793
   A15        1.87693   0.00055   0.00000   0.00555   0.00559   1.88251
   A16        2.06934  -0.00197   0.00000  -0.01350  -0.01352   2.05583
   A17        2.22583  -0.00181   0.00000  -0.00808  -0.00810   2.21773
   A18        1.98789   0.00378   0.00000   0.02175   0.02173   2.00962
   A19        1.91005   0.00237   0.00000   0.01554   0.01549   1.92553
   A20        1.91723   0.00386   0.00000   0.02278   0.02275   1.93998
   A21        1.98083  -0.00285   0.00000  -0.01750  -0.01742   1.96342
   A22        1.88722  -0.00307   0.00000  -0.01879  -0.01896   1.86827
   A23        1.87283   0.00045   0.00000   0.00447   0.00453   1.87736
   A24        1.89307  -0.00096   0.00000  -0.00760  -0.00751   1.88556
   A25        1.89069  -0.00238   0.00000  -0.02152  -0.02150   1.86919
   A26        1.88471   0.00023   0.00000   0.00333   0.00336   1.88806
   A27        1.92169   0.00225   0.00000   0.01140   0.01142   1.93311
   A28        1.86360   0.00194   0.00000   0.01655   0.01656   1.88016
   A29        1.92090   0.00000   0.00000  -0.00094  -0.00092   1.91998
   A30        1.97937  -0.00213   0.00000  -0.00962  -0.00961   1.96976
   A31        1.99472   0.00147   0.00000   0.00583   0.00581   2.00053
   A32        2.18281  -0.00335   0.00000  -0.01320  -0.01322   2.16959
   A33        2.10561   0.00188   0.00000   0.00748   0.00746   2.11307
   A34        1.92348   0.00174   0.00000   0.00878   0.00880   1.93228
   A35        1.92496   0.00221   0.00000   0.01237   0.01240   1.93736
   A36        1.96060  -0.00277   0.00000  -0.01386  -0.01382   1.94678
   A37        1.89487  -0.00313   0.00000  -0.02544  -0.02544   1.86944
   A38        1.87870   0.00092   0.00000   0.00800   0.00803   1.88673
   A39        1.87922   0.00091   0.00000   0.00931   0.00935   1.88856
   A40        2.06736  -0.00179   0.00000  -0.01217  -0.01256   2.05479
   A41        2.22782  -0.00178   0.00000  -0.00779  -0.00820   2.21962
   A42        1.98787   0.00358   0.00000   0.02078   0.02036   2.00823
   A43        1.94452   0.00329   0.00000   0.01362   0.01367   1.95819
   A44        1.93085  -0.00167   0.00000  -0.01693  -0.01701   1.91385
   A45        1.91629  -0.00337   0.00000  -0.02311  -0.02330   1.89299
   A46        1.94484  -0.00129   0.00000  -0.00739  -0.00733   1.93750
   A47        1.88213   0.00136   0.00000   0.02213   0.02225   1.90438
   A48        1.84166   0.00155   0.00000   0.01201   0.01176   1.85341
    D1        2.64820   0.00157   0.00000   0.05489   0.05470   2.70290
    D2       -0.47160   0.00062   0.00000  -0.00616  -0.00594  -0.47754
    D3        0.64500  -0.00074   0.00000   0.02457   0.02434   0.66934
    D4       -2.47480  -0.00169   0.00000  -0.03648  -0.03631  -2.51111
    D5       -1.48335   0.00090   0.00000   0.04805   0.04786  -1.43549
    D6        1.68004  -0.00005   0.00000  -0.01300  -0.01279   1.66725
    D7       -0.96556  -0.00055   0.00000  -0.01722  -0.01722  -0.98278
    D8       -3.13921  -0.00004   0.00000  -0.00509  -0.00505   3.13893
    D9        1.11831   0.00104   0.00000   0.00394   0.00376   1.12207
   D10        1.04064  -0.00077   0.00000  -0.01197  -0.01189   1.02875
   D11       -1.13301  -0.00027   0.00000   0.00016   0.00028  -1.13273
   D12        3.12450   0.00082   0.00000   0.00919   0.00909   3.13360
   D13       -3.12372  -0.00088   0.00000  -0.02106  -0.02101   3.13846
   D14        0.98582  -0.00038   0.00000  -0.00893  -0.00884   0.97698
   D15       -1.03985   0.00071   0.00000   0.00009  -0.00003  -1.03988
   D16       -1.03811   0.00011   0.00000  -0.03752  -0.03782  -1.07593
[...]
                 (A) (A) (A) (A) (A) (A) (A) (A) (A) (A) (A) (A)
                 (A) (A) (A) (A) (A) (A) (A) (A) (A) (A) (A) (A)
                 (A) (A) (A) (A) (A) (A) (A) (A) (A) (A) (A) (A)
                 (A) (A) (A) (A) (A) (A) (A) (A) (A) (A) (A) (A)
                 (A) (A) (A) (A) (A) (A) (A) (A) (A) (A) (A) (A)
                 (A) (A) (A) (A) (A) (A) (A) (A) (A) (A) (A) (A)
                 (A) (A) (A) (A) (A) (A) (A) (A) (A) (A) (A) (A)
                 (A) (A) (A) (A) (A) (A) (A) (A) (A) (A) (A) (A)
                 (A) (A) (A) (A) (A) (A) (A) (A) (A)
 The electronic state is 1-A.
 Alpha  occ. eigenvalues --  -11.23028 -11.22456 -11.21863 -11.21726 -11.21721
 Alpha  occ. eigenvalues --  -11.21541 -11.21497 -11.21449 -11.21393 -11.21358
 Alpha  occ. eigenvalues --   -1.10803  -1.08495  -1.01828  -0.98138  -0.93839
 Alpha  occ. eigenvalues --   -0.91936  -0.86954  -0.82861  -0.70567  -0.69489
 Alpha  occ. eigenvalues --   -0.64754  -0.61539  -0.60720  -0.58828  -0.58414
 Alpha  occ. eigenvalues --   -0.56814  -0.55405  -0.54979  -0.53298  -0.52217
 Alpha  occ. eigenvalues --   -0.51714  -0.51214  -0.50653  -0.50166  -0.47383
 Alpha  occ. eigenvalues --   -0.46917  -0.44458  -0.33328  -0.31563
 Alpha virt. eigenvalues --    0.18100   0.19932   0.22053   0.24536   0.24955
 Alpha virt. eigenvalues --    0.27424   0.28601   0.28877   0.30353   0.30694
 Alpha virt. eigenvalues --    0.31966   0.32601   0.32969   0.33726   0.34466
 Alpha virt. eigenvalues --    0.35524   0.36421   0.37370   0.38662   0.39972
 Alpha virt. eigenvalues --    0.40998   0.42095   0.42777   0.44262   0.45477
 Alpha virt. eigenvalues --    0.51938   0.54227   0.61292   0.62632   0.69521
 Alpha virt. eigenvalues --    0.71676   0.71855   0.74127   0.75627   0.76300
 Alpha virt. eigenvalues --    0.77310   0.78587   0.80192   0.80428   0.82510
 Alpha virt. eigenvalues --    0.83060   0.85963   0.89706   0.90634   0.91906
 Alpha virt. eigenvalues --    0.92727   0.94246   0.96733   0.97890   0.99038
 Alpha virt. eigenvalues --    0.99663   1.01316   1.02330   1.04636   1.06421
 Alpha virt. eigenvalues --    1.06946   1.08561   1.08610   1.11036   1.12563
 Alpha virt. eigenvalues --    1.13528   1.14242   1.14315   1.15516   1.15561
 Alpha virt. eigenvalues --    1.15995   1.16443   1.18511   1.18881   1.20423
 Alpha virt. eigenvalues --    1.21361   1.22874   1.23837   1.26678   1.27279
 Alpha virt. eigenvalues --    1.29587   1.40505   1.41229   1.45131   1.46302
 Alpha virt. eigenvalues --    1.47303   1.54539   1.56916   1.57904   1.58162
 Alpha virt. eigenvalues --    1.61580   1.62900   1.65166   1.67986   1.70099
 Alpha virt. eigenvalues --    1.73688   1.82808   1.91105   1.92024   1.96649
 Alpha virt. eigenvalues --    1.98629   2.01394   2.02264   2.04662   2.08570
 Alpha virt. eigenvalues --    2.09659   2.11023   2.11867   2.13286   2.14333
 Alpha virt. eigenvalues --    2.15615   2.17830   2.19386   2.23464   2.28302
 Alpha virt. eigenvalues --    2.29342   2.30634   2.33018   2.35331   2.35655
 Alpha virt. eigenvalues --    2.35947   2.36091   2.39306   2.40246   2.40800
 Alpha virt. eigenvalues --    2.42218   2.43338   2.43738   2.45452   2.46063
 Alpha virt. eigenvalues --    2.47468   2.49490   2.50160   2.50478   2.53353
 Alpha virt. eigenvalues --    2.56171   2.59443   2.61268   2.62977   2.65059
 Alpha virt. eigenvalues --    2.67062   2.68311   2.71449   2.72617   2.74255
 Alpha virt. eigenvalues --    2.76086   2.77474   2.80595   2.82947   2.83712
 Alpha virt. eigenvalues --    2.86556   2.90534   2.92645   2.94406   2.94575
 Alpha virt. eigenvalues --    2.97681   2.98672   3.01242   3.02716   3.05048
 Alpha virt. eigenvalues --    3.06983   3.08131   3.09712   3.12652   3.17075
 Alpha virt. eigenvalues --    3.17580   3.18813   3.20184   3.20611   3.22304
 Alpha virt. eigenvalues --    3.23445   3.25849   3.26685   3.27777   3.38376
 Alpha virt. eigenvalues --    3.40097   3.45764   3.46979   3.56086   3.58279
 Alpha virt. eigenvalues --    3.59222   3.61997   3.68641   3.74872   3.78914
 Alpha virt. eigenvalues --    3.79698   3.81279   3.82681   3.83341   3.84006
 Alpha virt. eigenvalues --    3.84104   3.86511   3.88184   3.89137   3.91421
 Alpha virt. eigenvalues --    3.97579   4.59401   4.62757   4.74521   4.82179
 Alpha virt. eigenvalues --    4.89167   4.92294   4.93230   5.07407   5.10903
 Alpha virt. eigenvalues --    5.17835
          Condensed to atoms (all electrons):
               1          2          3          4          5          6
     1  C    5.003997   0.413411   0.412745   0.339222  -0.057161  -0.003571
     2  H    0.413411   0.576310  -0.028359  -0.039654   0.003215  -0.000037
     3  H    0.412745  -0.028359   0.584867  -0.045647  -0.004621   0.002410
     4  C    0.339222  -0.039654  -0.045647   4.951262   0.352880  -0.041600
     5  C   -0.057161   0.003215  -0.004621   0.352880   4.891657   0.397676
     6  H   -0.003571  -0.000037   0.002410  -0.041600   0.397676   0.591603
     7  H   -0.000045  -0.000012  -0.000557  -0.045807   0.400489  -0.037732
     8  H    0.003819  -0.000111   0.000114  -0.042642   0.407271  -0.026708
     9  C   -0.046576  -0.001941   0.002347   0.696859  -0.046080  -0.000465
    10  H    0.003280   0.000029  -0.000115  -0.037937  -0.006573   0.000218
    11  C   -0.007739  -0.002699   0.000152  -0.049997   0.003357  -0.000104
    12  H    0.000295  -0.000067  -0.000013  -0.000357  -0.000097  -0.000004
    13  H    0.000167   0.000160   0.000018  -0.000541  -0.000105   0.000017
    14  H   -0.002166  -0.001508   0.000038  -0.000577   0.000102   0.000001
    15  C    0.000549  -0.000016   0.000191  -0.000019  -0.000025  -0.000001
    16  H   -0.000041   0.000000   0.000017   0.000001  -0.000000   0.000000
    17  H    0.000120  -0.000001  -0.000099  -0.000004   0.000001   0.000000
    18  H   -0.000058  -0.000011   0.000094  -0.000061   0.000096  -0.000000
    19  C   -0.004098   0.000622   0.001256  -0.000004   0.000007  -0.000001
    20  C   -0.000102  -0.000001  -0.000045   0.000002  -0.000000   0.000000
    21  H   -0.000005   0.000000   0.000002   0.000000  -0.000000   0.000000
    22  H    0.000024  -0.000001  -0.000008  -0.000000   0.000000  -0.000000
    23  H   -0.000003   0.000002  -0.000002   0.000000  -0.000000  -0.000000
    24  C   -0.062090  -0.001230   0.000057   0.006210  -0.000074   0.000003
    25  H   -0.000091   0.001049   0.000171  -0.000105  -0.000002   0.000000
    26  C    0.331129  -0.042384  -0.045729  -0.055684  -0.001011   0.000075
    27  H   -0.042601   0.004316  -0.002340  -0.002245  -0.000436   0.000058
    28  H   -0.046716  -0.002896   0.004692  -0.001441   0.000280   0.000005
               7          8          9         10         11         12
     1  C   -0.000045   0.003819  -0.046576   0.003280  -0.007739   0.000295
     2  H   -0.000012  -0.000111  -0.001941   0.000029  -0.002699  -0.000067
     3  H   -0.000557   0.000114   0.002347  -0.000115   0.000152  -0.000013
     4  C   -0.045807  -0.042642   0.696859  -0.037937  -0.049997  -0.000357
     5  C    0.400489   0.407271  -0.046080  -0.006573   0.003357  -0.000097
     6  H   -0.037732  -0.026708  -0.000465   0.000218  -0.000104  -0.000004
     7  H    0.599593  -0.027516  -0.000883   0.000143  -0.000102   0.000016
     8  H   -0.027516   0.568320  -0.002982   0.002347   0.000133  -0.000005
     9  C   -0.000883  -0.002982   4.938271   0.404337   0.340912  -0.041711
    10  H    0.000143   0.002347   0.404337   0.559262  -0.041317  -0.001238
    11  C   -0.000102   0.000133   0.340912  -0.041317   4.898015   0.401889
    12  H    0.000016  -0.000005  -0.041711  -0.001238   0.401889   0.585672
    13  H   -0.000004  -0.000006  -0.041774  -0.001163   0.401438  -0.035520
    14  H   -0.000002   0.000005  -0.043875   0.003330   0.409145  -0.029082
    15  C   -0.000043   0.000000  -0.000000  -0.000000  -0.000000  -0.000000
    16  H   -0.000000   0.000000   0.000000   0.000000   0.000000  -0.000000
    17  H   -0.000001  -0.000000   0.000000  -0.000000   0.000000   0.000000
    18  H    0.000361  -0.000001  -0.000001   0.000000  -0.000000   0.000000
    19  C    0.000021  -0.000000  -0.000003   0.000000   0.000000   0.000000
    20  C   -0.000000   0.000000  -0.000000   0.000000   0.000000  -0.000000
    21  H    0.000000   0.000000  -0.000000   0.000000  -0.000000  -0.000000
    22  H    0.000000  -0.000000   0.000000  -0.000000  -0.000000   0.000000
    23  H   -0.000000  -0.000000  -0.000000   0.000000  -0.000000  -0.000000
    24  C   -0.000104   0.000002   0.000036   0.000002  -0.000027  -0.000007
    25  H   -0.000000   0.000000   0.000007  -0.000000  -0.000002  -0.000000
    26  C    0.000669  -0.000108  -0.004455  -0.000120   0.000509   0.000149
    27  H   -0.000466  -0.000040   0.000648   0.000001  -0.000030  -0.000000
    28  H   -0.000003  -0.000004   0.001236  -0.000038   0.000051  -0.000081
              13         14         15         16         17         18
     1  C    0.000167  -0.002166   0.000549  -0.000041   0.000120  -0.000058
     2  H    0.000160  -0.001508  -0.000016   0.000000  -0.000001  -0.000011
     3  H    0.000018   0.000038   0.000191   0.000017  -0.000099   0.000094
     4  C   -0.000541  -0.000577  -0.000019   0.000001  -0.000004  -0.000061
     5  C   -0.000105   0.000102  -0.000025  -0.000000   0.000001   0.000096
     6  H    0.000017   0.000001  -0.000001   0.000000   0.000000  -0.000000
     7  H   -0.000004  -0.000002  -0.000043  -0.000000  -0.000001   0.000361
     8  H   -0.000006   0.000005   0.000000   0.000000  -0.000000  -0.000001
     9  C   -0.041774  -0.043875  -0.000000   0.000000   0.000000  -0.000001
    10  H   -0.001163   0.003330  -0.000000   0.000000  -0.000000   0.000000
    11  C    0.401438   0.409145  -0.000000   0.000000   0.000000  -0.000000
    12  H   -0.035520  -0.029082  -0.000000  -0.000000   0.000000   0.000000
    13  H    0.584890  -0.027817   0.000000   0.000000  -0.000000  -0.000000
    14  H   -0.027817   0.577276   0.000000   0.000000  -0.000000   0.000000
    15  C    0.000000   0.000000   4.904567   0.400306   0.401034   0.406928
    16  H    0.000000   0.000000   0.400306   0.585123  -0.035758  -0.026774
    17  H   -0.000000  -0.000000   0.401034  -0.035758   0.586876  -0.028092
    18  H   -0.000000   0.000000   0.406928  -0.026774  -0.028092   0.570628
    19  C   -0.000000   0.000001   0.350683  -0.043642  -0.043358  -0.037727
    20  C    0.000000  -0.000000  -0.065053  -0.002204  -0.002670   0.003758
    21  H    0.000000   0.000000  -0.001177   0.002752  -0.000486  -0.000032
    22  H   -0.000000  -0.000000  -0.001990  -0.000448   0.002769  -0.000068
    23  H   -0.000000   0.000000   0.003789  -0.000055  -0.000029  -0.000115
    24  C    0.000002   0.000064  -0.044156  -0.000377  -0.000024  -0.003150
    25  H   -0.000000   0.000025   0.003541  -0.000120  -0.000122   0.000051
    26  C   -0.000037  -0.000554  -0.007949   0.000140   0.000348  -0.002567
    27  H   -0.000000  -0.000004  -0.002567   0.000086  -0.000063  -0.001997
    28  H    0.000025   0.000016   0.000178   0.000024  -0.000014   0.000062
              19         20         21         22         23         24
     1  C   -0.004098  -0.000102  -0.000005   0.000024  -0.000003  -0.062090
     2  H    0.000622  -0.000001   0.000000  -0.000001   0.000002  -0.001230
     3  H    0.001256  -0.000045   0.000002  -0.000008  -0.000002   0.000057
     4  C   -0.000004   0.000002   0.000000  -0.000000   0.000000   0.006210
     5  C    0.000007  -0.000000  -0.000000   0.000000  -0.000000  -0.000074
     6  H   -0.000001   0.000000   0.000000  -0.000000  -0.000000   0.000003
     7  H    0.000021  -0.000000   0.000000   0.000000  -0.000000  -0.000104
     8  H   -0.000000   0.000000   0.000000  -0.000000  -0.000000   0.000002
     9  C   -0.000003  -0.000000  -0.000000   0.000000  -0.000000   0.000036
    10  H    0.000000   0.000000   0.000000  -0.000000   0.000000   0.000002
    11  C    0.000000   0.000000  -0.000000  -0.000000  -0.000000  -0.000027
    12  H    0.000000  -0.000000  -0.000000   0.000000  -0.000000  -0.000007
    13  H   -0.000000   0.000000   0.000000  -0.000000  -0.000000   0.000002
    14  H    0.000001  -0.000000   0.000000  -0.000000   0.000000   0.000064
    15  C    0.350683  -0.065053  -0.001177  -0.001990   0.003789  -0.044156
    16  H   -0.043642  -0.002204   0.002752  -0.000448  -0.000055  -0.000377
    17  H   -0.043358  -0.002670  -0.000486   0.002769  -0.000029  -0.000024
    18  H   -0.037727   0.003758  -0.000032  -0.000068  -0.000115  -0.003150
    19  C    4.915064   0.353472  -0.044307  -0.043823  -0.041665   0.696285
    20  C    0.353472   4.900552   0.398829   0.398175   0.406165  -0.044228
    21  H   -0.044307   0.398829   0.593696  -0.037823  -0.026546  -0.001279
    22  H   -0.043823   0.398175  -0.037823   0.594540  -0.026667  -0.000470
    23  H   -0.041665   0.406165  -0.026546  -0.026667   0.565965  -0.002577
    24  C    0.696285  -0.044228  -0.001279  -0.000470  -0.002577   4.960935
    25  H   -0.038332  -0.006998   0.000188   0.000180   0.002368   0.403960
    26  C   -0.049354   0.003136  -0.000128  -0.000071   0.000144   0.340992
    27  H    0.000417   0.000050   0.000006  -0.000004   0.000007  -0.044503
    28  H    0.001446  -0.000091   0.000009  -0.000002  -0.000009  -0.041006
              25         26         27         28
     1  C   -0.000091   0.331129  -0.042601  -0.046716
     2  H    0.001049  -0.042384   0.004316  -0.002896
     3  H    0.000171  -0.045729  -0.002340   0.004692
     4  C   -0.000105  -0.055684  -0.002245  -0.001441
     5  C   -0.000002  -0.001011  -0.000436   0.000280
     6  H    0.000000   0.000075   0.000058   0.000005
     7  H   -0.000000   0.000669  -0.000466  -0.000003
     8  H    0.000000  -0.000108  -0.000040  -0.000004
     9  C    0.000007  -0.004455   0.000648   0.001236
    10  H   -0.000000  -0.000120   0.000001  -0.000038
    11  C   -0.000002   0.000509  -0.000030   0.000051
    12  H   -0.000000   0.000149  -0.000000  -0.000081
    13  H   -0.000000  -0.000037  -0.000000   0.000025
    14  H    0.000025  -0.000554  -0.000004   0.000016
    15  C    0.003541  -0.007949  -0.002567   0.000178
    16  H   -0.000120   0.000140   0.000086   0.000024
    17  H   -0.000122   0.000348  -0.000063  -0.000014
    18  H    0.000051  -0.002567  -0.001997   0.000062
    19  C   -0.038332  -0.049354   0.000417   0.001446
    20  C   -0.006998   0.003136   0.000050  -0.000091
    21  H    0.000188  -0.000128   0.000006   0.000009
    22  H    0.000180  -0.000071  -0.000004  -0.000002
    23  H    0.002368   0.000144   0.000007  -0.000009
    24  C    0.403960   0.340992  -0.044503  -0.041006
    25  H    0.558056  -0.040061   0.003267  -0.003353
    26  C   -0.040061   4.977839   0.416251   0.413228
    27  H    0.003267   0.416251   0.582598  -0.028540
    28  H   -0.003353   0.413228  -0.028540   0.579538
 Mulliken charges:
               1
     1  C   -0.235696
     2  H    0.121814
     3  H    0.118365
     4  C    0.017883
     5  C   -0.340845
     6  H    0.118156
     7  H    0.111985
     8  H    0.118112
     9  C   -0.153908
    10  H    0.115552
    11  C   -0.353585
    12  H    0.120162
    13  H    0.120250
    14  H    0.115581
    15  C   -0.348771
    16  H    0.120971
    17  H    0.119572
    18  H    0.118676
    19  C    0.027041
    20  C   -0.342746
    21  H    0.116299
    22  H    0.115688
    23  H    0.119226
    24  C   -0.163245
    25  H    0.116321
    26  C   -0.234395
    27  H    0.118132
    28  H    0.123405
 Sum of Mulliken charges =  -0.00000
 Mulliken charges with hydrogens summed into heavy atoms:
               1
     1  C    0.004483
     4  C    0.017883
     5  C    0.007409
     9  C   -0.038356
    11  C    0.002408
    15  C    0.010448
    19  C    0.027041
    20  C    0.008468
    24  C   -0.046924
    26  C    0.007142
 Electronic spatial extent (au):  <R**2>=           2498.6162
 Charge=             -0.0000 electrons
 Dipole moment (field-independent basis, Debye):
    X=              0.3626    Y=              0.1699    Z=              0.0498  Tot=              0.4035
 Quadrupole moment (field-independent basis, Debye-Ang):
   XX=            -63.7582   YY=            -63.7112   ZZ=            -67.3994
   XY=              1.0617   XZ=              1.2177   YZ=             -0.3674
 Traceless Quadrupole moment (field-independent basis, Debye-Ang):
   XX=              1.1981   YY=              1.2451   ZZ=             -2.4431
   XY=              1.0617   XZ=              1.2177   YZ=             -0.3674
 Octapole moment (field-independent basis, Debye-Ang**2):
  XXX=              2.8324  YYY=             -2.8562  ZZZ=              0.8775  XYY=             -0.7382
  XXY=              1.7309  XXZ=             -2.8066  XZZ=              1.5462  YZZ=              1.4376
  YYZ=              0.7861  XYZ=             -0.4940
 Hexadecapole moment (field-independent basis, Debye-Ang**3):
 XXXX=          -2633.5334 YYYY=           -638.9545 ZZZZ=           -166.0439 XXXY=             10.5035
 XXXZ=             13.5605 YYYX=             -7.0822 YYYZ=             -1.6738 ZZZX=              4.0399
 ZZZY=              2.3776 XXYY=           -550.6718 XXZZ=           -483.2675 YYZZ=           -131.1157
 XXYZ=             -4.5757 YYXZ=              2.5312 ZZXY=              7.7339
 N-N= 5.156965156863D+02 E-N=-1.936106397360D+03  KE= 3.887456769644D+02
 No NMR shielding tensors so no spin-rotation constants.
 Leave Link  601 at Fri Sep 17 16:55:37 2021, MaxMem=   524288000 cpu:               0.3 elap:               0.6
 (Enter /opt/gaussian/g16_legacy/l9999.exe)
 1\1\GINC-TRUENO90\FOpt\RMP2-FC\6-31G(d,p)\C10H18\JRAMOS\17-Sep-2021\0\
 \#p opt mp2/6-31g(d,p)\\Conformer number 3226. Energy MM = 23.287 kcal
 /mol\\0,1\C,0.7421589803,-0.2309347699,-0.6025314756\H,0.8799183874,-1
 .2903232607,-0.8257297813\H,0.1522792149,0.1812232243,-1.4259292916\C,
 2.0638796184,0.490414182,-0.5218563381\C,2.0271136621,1.9453171986,-0.
 9044708665\H,1.7479958569,2.0636961731,-1.953728188\H,1.2837424269,2.4
 872452046,-0.3153833235\H,2.9933560675,2.4242977087,-0.7513116248\C,3.
 2037174154,-0.083229717,-0.0935162067\H,4.0941210359,0.5379885686,-0.0
 502350003\C,3.391213269,-1.5051130407,0.3407818823\H,3.7522746878,-1.5
 486787912,1.3699409637\H,4.1365175934,-2.0073915811,-0.2787950183\H,2.
 4691276584,-2.0793338577,0.2897227285\C,-2.8104118152,1.2358963449,0.0
 756136769\H,-3.499464029,1.6485578828,0.8158835615\H,-3.2688165447,1.3
 912629736,-0.9033365416\H,-1.889832113,1.8129193998,0.1090166432\C,-2.
 5933662099,-0.2320918102,0.318006956\C,-3.8358330663,-1.0743408931,0.2
 256591095\H,-4.584336133,-0.7429801429,0.9490077324\H,-4.2918224072,-0
 .9886416674,-0.7632368892\H,-3.6216509728,-2.125357331,0.4133563544\C,
 -1.4008876395,-0.7887940205,0.6021939863\H,-1.3724877028,-1.867448893,
 0.7356031625\C,-0.0752571564,-0.0936976526,0.696410181\H,-0.2001620383
 ,0.9636746067,0.9333565997\H,0.5066119535,-0.5242360387,1.5155070075\\
 Version=EM64L-G16RevA.03\State=1-A\HF=-389.1568792\MP2=-390.573553\RMS
 D=2.373e-09\RMSF=3.837e-06\Dipole=-0.1079657,0.0347166,-0.0169349\PG=C
 01 [X(C10H18)]\\@


 IF YOU BELIEVE CERTAIN WORDS, YOU BELIEVE THEIR HIDDEN ARGUMENTS.
 WHEN YOU BELIEVE SOMETHING IS RIGHT OR WRONG, TRUE OR FALSE, 
 YOU BELIEVE THE ASSUMPTIONS IN THE WORDS WHICH EXPRESS THE ARGUMENTS.
 SUCH ASSUMPTIONS ARE OFTEN FULL OF HOLES, BUT REMAIN MOST PRECIOUS 
 TO THE CONVINCED.

                 -- THE OPEN-ENDED PROOF FROM THE PANOPLIA PROPHETICA
                    CHILDREN OF DUNE BY FRANK HERBERT
 Job cpu time:       0 days  1 hours 56 minutes 15.0 seconds.
 Elapsed time:       0 days  1 hours 56 minutes 29.1 seconds.
 File lengths (MBytes):  RWF=     32 Int=      0 D2E=      0 Chk=      7 Scr=      1
 Normal termination of Gaussian 16 at Fri Sep 17 16:55:38 2021.
