 Entering Gaussian System, Link 0=/opt/gaussian/g16_legacy/g16
 Input=01-IsoP_3936_gaussian.com
 Output=01-IsoP_3936_gaussian.log
 Initial command:
 /opt/gaussian/g16_legacy/l1.exe "/scratch-local/jramos/2661415/Gau-7011.inp" -scrdir="/scratch-local/jramos/2661415/"
 Entering Link 1 = /opt/gaussian/g16_legacy/l1.exe PID=      7012.
  
 Copyright (c) 1988,1990,1992,1993,1995,1998,2003,2009,2016,
            Gaussian, Inc.  All Rights Reserved.
  
 This is part of the Gaussian(R) 16 program.  It is based on
 the Gaussian(R) 09 system (copyright 2009, Gaussian, Inc.),
 the Gaussian(R) 03 system (copyright 2003, Gaussian, Inc.),
 the Gaussian(R) 98 system (copyright 1998, Gaussian, Inc.),
 the Gaussian(R) 94 system (copyright 1995, Gaussian, Inc.),
 the Gaussian 92(TM) system (copyright 1992, Gaussian, Inc.),
 the Gaussian 90(TM) system (copyright 1990, Gaussian, Inc.),
 the Gaussian 88(TM) system (copyright 1988, Gaussian, Inc.),
 the Gaussian 86(TM) system (copyright 1986, Carnegie Mellon
 University), and the Gaussian 82(TM) system (copyright 1983,
 Carnegie Mellon University). Gaussian is a federally registered
 trademark of Gaussian, Inc.
  
 This software contains proprietary and confidential information,
 including trade secrets, belonging to Gaussian, Inc.
  
 This software is provided under written license and may be
 used, copied, transmitted, or stored only in accord with that
 written license.
  
 The following legend is applicable only to US Government
 contracts under FAR:
  
                    RESTRICTED RIGHTS LEGEND
  
 Use, reproduction and disclosure by the US Government is
 subject to restrictions as set forth in subparagraphs (a)
 and (c) of the Commercial Computer Software - Restricted
 Rights clause in FAR 52.227-19.
  
 Gaussian, Inc.
 340 Quinnipiac St., Bldg. 40, Wallingford CT 06492
  
  
 ---------------------------------------------------------------
 Warning -- This program may not be used in any manner that
 competes with the business of Gaussian, Inc. or will provide
 assistance to any competitor of Gaussian, Inc.  The licensee
 of this program is prohibited from giving any competitor of
 Gaussian, Inc. access to this program.  By using this program,
 the user acknowledges that Gaussian, Inc. is engaged in the
 business of creating and licensing software in the field of
 computational chemistry and represents and warrants to the
 licensee that it is not a competitor of Gaussian, Inc. and that
 it will not use this program in any manner prohibited above.
 ---------------------------------------------------------------
  

 Cite this work as:
 Gaussian 16, Revision A.03,
 M. J. Frisch, G. W. Trucks, H. B. Schlegel, G. E. Scuseria, 
 M. A. Robb, J. R. Cheeseman, G. Scalmani, V. Barone, 
 G. A. Petersson, H. Nakatsuji, X. Li, M. Caricato, A. V. Marenich, 
 J. Bloino, B. G. Janesko, R. Gomperts, B. Mennucci, H. P. Hratchian, 
 J. V. Ortiz, A. F. Izmaylov, J. L. Sonnenberg, D. Williams-Young, 
 F. Ding, F. Lipparini, F. Egidi, J. Goings, B. Peng, A. Petrone, 
 T. Henderson, D. Ranasinghe, V. G. Zakrzewski, J. Gao, N. Rega, 
 G. Zheng, W. Liang, M. Hada, M. Ehara, K. Toyota, R. Fukuda, 
 J. Hasegawa, M. Ishida, T. Nakajima, Y. Honda, O. Kitao, H. Nakai, 
 T. Vreven, K. Throssell, J. A. Montgomery, Jr., J. E. Peralta, 
 F. Ogliaro, M. J. Bearpark, J. J. Heyd, E. N. Brothers, K. N. Kudin, 
 V. N. Staroverov, T. A. Keith, R. Kobayashi, J. Normand, 
 K. Raghavachari, A. P. Rendell, J. C. Burant, S. S. Iyengar, 
 J. Tomasi, M. Cossi, J. M. Millam, M. Klene, C. Adamo, R. Cammi, 
 J. W. Ochterski, R. L. Martin, K. Morokuma, O. Farkas, 
 J. B. Foresman, and D. J. Fox, Gaussian, Inc., Wallingford CT, 2016.
 
 ******************************************
 Gaussian 16:  EM64L-G16RevA.03 25-Dec-2016
                17-Sep-2021 
 ******************************************
 %chk=01-IsoP_3936_gaussian.chk
 %nproc=1
 Will use up to    1 processors via shared memory.
 %mem=4000Mb
 ---------------------
 #p opt mp2/6-31g(d,p)
 ---------------------
 1/18=20,19=15,38=1/1,3;
 2/9=110,12=2,17=6,18=5,40=1/2;
 3/5=1,6=6,7=101,11=9,25=1,30=1,71=1/1,2,3;
 4//1;
 5/5=2,38=5/2;
 8/6=4,10=2/1;
 9/15=2,16=-3/6;
 10/5=1/2;
 6/7=2,8=2,9=2,10=2/1;
 7/12=2/1,2,3,16;
 1/18=20,19=15/3(2);
 2/9=110/2;
 99//99;
 2/9=110/2;
 3/5=1,6=6,7=101,11=9,25=1,30=1,71=1/1,2,3;
 4/5=5,16=3,69=1/1;
 5/5=2,38=5/2;
 8/6=4,10=2/1;
 9/15=2,16=-3/6;
 10/5=1/2;
 7/12=2/1,2,3,16;
 1/18=20,19=15/3(-8);
 2/9=110/2;
 6/7=2,8=2,9=2,10=2/1;
 99//99;
 Leave Link    1 at Fri Sep 17 15:32:57 2021, MaxMem=   524288000 cpu:               0.0 elap:               0.2
 (Enter /opt/gaussian/g16_legacy/l101.exe)
 --------------------------------------------------
 Conformer number 3936. Energy MM = 23.242 kcal/mol
 --------------------------------------------------
 Symbolic Z-matrix:
 Charge =  0 Multiplicity = 1
 C                    -0.7548    0.6618   -0.719 
 H                    -0.5839   -0.2792   -1.2555 
 H                    -0.6033    1.4467   -1.4721 
 C                    -2.1801    0.7339   -0.2109 
 C                    -2.7415    2.1264   -0.0794 
 H                    -2.1466    2.7138    0.627 
 H                    -3.7755    2.1245    0.2813 
 H                    -2.7308    2.6332   -1.05 
 C                    -2.9359   -0.3407    0.0903 
 H                    -3.9596   -0.1802    0.4273 
 C                    -2.5321   -1.7804    0.0415 
 H                    -2.7633   -2.2563    1. 
 H                    -1.4661   -1.928    -0.1455 
 H                    -3.0958   -2.2981   -0.7403 
 C                     3.9359   -0.1659   -0.5932 
 H                     4.1318    0.8241   -1.0183 
 H                     4.6724   -0.3389    0.1984 
 H                     4.0951   -0.9051   -1.3851 
 C                     2.5398   -0.2854   -0.04 
 C                     2.2262   -1.6267    0.5636 
 H                     1.1758   -1.744     0.8394 
 H                     2.8311   -1.7856    1.4621 
 H                     2.4563   -2.4236   -0.1519 
 C                     1.6797    0.749    -0.1165 
 H                     2.0155    1.6691   -0.5951 
 C                     0.2704    0.8128    0.4093 
 H                     0.1425    1.7826    0.9068 
 H                     0.0965    0.0601    1.1852 
 
 ITRead=  0  0  0  0  0  0  0  0  0  0  0  0  0  0  0  0  0  0  0  0
 ITRead=  0  0  0  0  0  0  0  0
 MicOpt= -1 -1 -1 -1 -1 -1 -1 -1 -1 -1 -1 -1 -1 -1 -1 -1 -1 -1 -1 -1
 MicOpt= -1 -1 -1 -1 -1 -1 -1 -1
 NAtoms=     28 NQM=       28 NQMF=       0 NMMI=      0 NMMIF=      0
                NMic=       0 NMicF=      0.
                    Isotopes and Nuclear Properties:
 (Nuclear quadrupole moments (NQMom) in fm**2, nuclear magnetic moments (NMagM)
  in nuclear magnetons)

  Atom         1           2           3           4           5           6           7           8           9          10
 IAtWgt=          12           1           1          12          12           1           1           1          12           1
 AtmWgt=  12.0000000   1.0078250   1.0078250  12.0000000  12.0000000   1.0078250   1.0078250   1.0078250  12.0000000   1.0078250
 NucSpn=           0           1           1           0           0           1           1           1           0           1
 AtZEff=  -0.0000000  -0.0000000  -0.0000000  -0.0000000  -0.0000000  -0.0000000  -0.0000000  -0.0000000  -0.0000000  -0.0000000
 NQMom=    0.0000000   0.0000000   0.0000000   0.0000000   0.0000000   0.0000000   0.0000000   0.0000000   0.0000000   0.0000000
 NMagM=    0.0000000   2.7928460   2.7928460   0.0000000   0.0000000   2.7928460   2.7928460   2.7928460   0.0000000   2.7928460
 AtZNuc=   6.0000000   1.0000000   1.0000000   6.0000000   6.0000000   1.0000000   1.0000000   1.0000000   6.0000000   1.0000000

  Atom        11          12          13          14          15          16          17          18          19          20
 IAtWgt=          12           1           1           1          12           1           1           1          12          12
 AtmWgt=  12.0000000   1.0078250   1.0078250   1.0078250  12.0000000   1.0078250   1.0078250   1.0078250  12.0000000  12.0000000
 NucSpn=           0           1           1           1           0           1           1           1           0           0
 AtZEff=  -0.0000000  -0.0000000  -0.0000000  -0.0000000  -0.0000000  -0.0000000  -0.0000000  -0.0000000  -0.0000000  -0.0000000
 NQMom=    0.0000000   0.0000000   0.0000000   0.0000000   0.0000000   0.0000000   0.0000000   0.0000000   0.0000000   0.0000000
 NMagM=    0.0000000   2.7928460   2.7928460   2.7928460   0.0000000   2.7928460   2.7928460   2.7928460   0.0000000   0.0000000
 AtZNuc=   6.0000000   1.0000000   1.0000000   1.0000000   6.0000000   1.0000000   1.0000000   1.0000000   6.0000000   6.0000000

  Atom        21          22          23          24          25          26          27          28
 IAtWgt=           1           1           1          12           1          12           1           1
 AtmWgt=   1.0078250   1.0078250   1.0078250  12.0000000   1.0078250  12.0000000   1.0078250   1.0078250
 NucSpn=           1           1           1           0           1           0           1           1
 AtZEff=  -0.0000000  -0.0000000  -0.0000000  -0.0000000  -0.0000000  -0.0000000  -0.0000000  -0.0000000
 NQMom=    0.0000000   0.0000000   0.0000000   0.0000000   0.0000000   0.0000000   0.0000000   0.0000000
 NMagM=    2.7928460   2.7928460   2.7928460   0.0000000   2.7928460   0.0000000   2.7928460   2.7928460
 AtZNuc=   1.0000000   1.0000000   1.0000000   6.0000000   1.0000000   6.0000000   1.0000000   1.0000000
 Leave Link  101 at Fri Sep 17 15:32:58 2021, MaxMem=   524288000 cpu:               0.3 elap:               0.4
 (Enter /opt/gaussian/g16_legacy/l103.exe)

 GradGradGradGradGradGradGradGradGradGradGradGradGradGradGradGradGradGrad
 Berny optimization.
 Initialization pass.
                           ----------------------------
                           !    Initial Parameters    !
                           ! (Angstroms and Degrees)  !
 --------------------------                            --------------------------
 ! Name  Definition              Value          Derivative Info.                !
 --------------------------------------------------------------------------------
 ! R1    R(1,2)                  1.0966         estimate D2E/DX2                !
 ! R2    R(1,3)                  1.0983         estimate D2E/DX2                !
 ! R3    R(1,4)                  1.5149         estimate D2E/DX2                !
 ! R4    R(1,26)                 1.532          estimate D2E/DX2                !
 ! R5    R(4,5)                  1.5072         estimate D2E/DX2                !
 ! R6    R(4,9)                  1.3479         estimate D2E/DX2                !
 ! R7    R(5,6)                  1.0945         estimate D2E/DX2                !
 ! R8    R(5,7)                  1.0951         estimate D2E/DX2                !
 ! R9    R(5,8)                  1.095          estimate D2E/DX2                !
 ! R10   R(9,10)                 1.0896         estimate D2E/DX2                !
 ! R11   R(9,11)                 1.4961         estimate D2E/DX2                !
 ! R12   R(11,12)                1.0948         estimate D2E/DX2                !
 ! R13   R(11,13)                1.0923         estimate D2E/DX2                !
 ! R14   R(11,14)                1.0941         estimate D2E/DX2                !
 ! R15   R(15,16)                1.0951         estimate D2E/DX2                !
 ! R16   R(15,17)                1.095          estimate D2E/DX2                !
 ! R17   R(15,18)                1.0949         estimate D2E/DX2                !
 ! R18   R(15,19)                1.5065         estimate D2E/DX2                !
 ! R19   R(19,20)                1.5039         estimate D2E/DX2                !
 ! R20   R(19,24)                1.3474         estimate D2E/DX2                !
 ! R21   R(20,21)                1.0923         estimate D2E/DX2                !
 ! R22   R(20,22)                1.0947         estimate D2E/DX2                !
 ! R23   R(20,23)                1.0954         estimate D2E/DX2                !
 ! R24   R(24,25)                1.0901         estimate D2E/DX2                !
 ! R25   R(24,26)                1.5055         estimate D2E/DX2                !
 ! R26   R(26,27)                1.0974         estimate D2E/DX2                !
 ! R27   R(26,28)                1.0949         estimate D2E/DX2                !
 ! A1    A(2,1,3)              104.85           estimate D2E/DX2                !
 ! A2    A(2,1,4)              110.5832         estimate D2E/DX2                !
 ! A3    A(2,1,26)             109.9145         estimate D2E/DX2                !
 ! A4    A(3,1,4)              109.0122         estimate D2E/DX2                !
 ! A5    A(3,1,26)             110.0159         estimate D2E/DX2                !
 ! A6    A(4,1,26)             112.2047         estimate D2E/DX2                !
 ! A7    A(1,4,5)              115.0686         estimate D2E/DX2                !
 ! A8    A(1,4,9)              124.3739         estimate D2E/DX2                !
 ! A9    A(5,4,9)              120.5471         estimate D2E/DX2                !
 ! A10   A(4,5,6)              110.4692         estimate D2E/DX2                !
 ! A11   A(4,5,7)              112.2618         estimate D2E/DX2                !
 ! A12   A(4,5,8)              110.2822         estimate D2E/DX2                !
 ! A13   A(6,5,7)              107.551          estimate D2E/DX2                !
 ! A14   A(6,5,8)              108.5649         estimate D2E/DX2                !
 ! A15   A(7,5,8)              107.5768         estimate D2E/DX2                !
 ! A16   A(4,9,10)             118.5869         estimate D2E/DX2                !
 ! A17   A(4,9,11)             127.488          estimate D2E/DX2                !
 ! A18   A(10,9,11)            113.9173         estimate D2E/DX2                !
 ! A19   A(9,11,12)            109.4358         estimate D2E/DX2                !
 ! A20   A(9,11,13)            113.5179         estimate D2E/DX2                !
 ! A21   A(9,11,14)            109.8529         estimate D2E/DX2                !
 ! A22   A(12,11,13)           107.2915         estimate D2E/DX2                !
 ! A23   A(12,11,14)           108.1262         estimate D2E/DX2                !
 ! A24   A(13,11,14)           108.4546         estimate D2E/DX2                !
 ! A25   A(16,15,17)           107.6466         estimate D2E/DX2                !
 ! A26   A(16,15,18)           107.6719         estimate D2E/DX2                !
 ! A27   A(16,15,19)           112.337          estimate D2E/DX2                !
 ! A28   A(17,15,18)           108.566          estimate D2E/DX2                !
 ! A29   A(17,15,19)           110.2021         estimate D2E/DX2                !
 ! A30   A(18,15,19)           110.2907         estimate D2E/DX2                !
 ! A31   A(15,19,20)           114.2915         estimate D2E/DX2                !
 ! A32   A(15,19,24)           120.6515         estimate D2E/DX2                !
 ! A33   A(20,19,24)           125.0541         estimate D2E/DX2                !
 ! A34   A(19,20,21)           113.4302         estimate D2E/DX2                !
 ! A35   A(19,20,22)           110.0989         estimate D2E/DX2                !
 ! A36   A(19,20,23)           110.0518         estimate D2E/DX2                !
 ! A37   A(21,20,22)           107.9706         estimate D2E/DX2                !
 ! A38   A(21,20,23)           106.7858         estimate D2E/DX2                !
 ! A39   A(22,20,23)           108.3263         estimate D2E/DX2                !
 ! A40   A(19,24,25)           118.4398         estimate D2E/DX2                !
 ! A41   A(19,24,26)           127.6052         estimate D2E/DX2                !
 ! A42   A(25,24,26)           113.9477         estimate D2E/DX2                !
 ! A43   A(1,26,24)            111.4095         estimate D2E/DX2                !
 ! A44   A(1,26,27)            110.0591         estimate D2E/DX2                !
 ! A45   A(1,26,28)            110.3574         estimate D2E/DX2                !
 ! A46   A(24,26,27)           107.7499         estimate D2E/DX2                !
 ! A47   A(24,26,28)           111.5326         estimate D2E/DX2                !
 ! A48   A(27,26,28)           105.5299         estimate D2E/DX2                !
 ! D1    D(2,1,4,5)           -151.4139         estimate D2E/DX2                !
 ! D2    D(2,1,4,9)             27.4132         estimate D2E/DX2                !
 ! D3    D(3,1,4,5)            -36.645          estimate D2E/DX2                !
 ! D4    D(3,1,4,9)            142.1821         estimate D2E/DX2                !
 ! D5    D(26,1,4,5)            85.4738         estimate D2E/DX2                !
 ! D6    D(26,1,4,9)           -95.6991         estimate D2E/DX2                !
 ! D7    D(2,1,26,24)           56.9444         estimate D2E/DX2                !
 ! D8    D(2,1,26,27)          176.4015         estimate D2E/DX2                !
 ! D9    D(2,1,26,28)          -67.5262         estimate D2E/DX2                !
 ! D10   D(3,1,26,24)          -58.022          estimate D2E/DX2                !
 ! D11   D(3,1,26,27)           61.4351         estimate D2E/DX2                !
 ! D12   D(3,1,26,28)          177.5074         estimate D2E/DX2                !
 ! D13   D(4,1,26,24)         -179.5678         estimate D2E/DX2                !
 ! D14   D(4,1,26,27)          -60.1107         estimate D2E/DX2                !
 ! D15   D(4,1,26,28)           55.9616         estimate D2E/DX2                !
 ! D16   D(1,4,5,6)            -60.5254         estimate D2E/DX2                !
 ! D17   D(1,4,5,7)            179.4348         estimate D2E/DX2                !
 ! D18   D(1,4,5,8)             59.4908         estimate D2E/DX2                !
 ! D19   D(9,4,5,6)            120.5986         estimate D2E/DX2                !
 ! D20   D(9,4,5,7)              0.5589         estimate D2E/DX2                !
 ! D21   D(9,4,5,8)           -119.3852         estimate D2E/DX2                !
 ! D22   D(1,4,9,10)          -178.6004         estimate D2E/DX2                !
 ! D23   D(1,4,9,11)             2.4826         estimate D2E/DX2                !
 ! D24   D(5,4,9,10)             0.166          estimate D2E/DX2                !
 ! D25   D(5,4,9,11)          -178.751          estimate D2E/DX2                !
 ! D26   D(4,9,11,12)          127.7497         estimate D2E/DX2                !
 ! D27   D(4,9,11,13)            7.9278         estimate D2E/DX2                !
 ! D28   D(4,9,11,14)         -113.6849         estimate D2E/DX2                !
 ! D29   D(10,9,11,12)         -51.2101         estimate D2E/DX2                !
 ! D30   D(10,9,11,13)        -171.032          estimate D2E/DX2                !
 ! D31   D(10,9,11,14)          67.3554         estimate D2E/DX2                !
 ! D32   D(16,15,19,20)       -179.6266         estimate D2E/DX2                !
 ! D33   D(16,15,19,24)          0.9557         estimate D2E/DX2                !
 ! D34   D(17,15,19,20)        -59.5991         estimate D2E/DX2                !
 ! D35   D(17,15,19,24)        120.9831         estimate D2E/DX2                !
 ! D36   D(18,15,19,20)         60.2529         estimate D2E/DX2                !
 ! D37   D(18,15,19,24)       -119.1648         estimate D2E/DX2                !
 ! D38   D(15,19,20,21)       -172.3361         estimate D2E/DX2                !
 ! D39   D(15,19,20,22)         66.5567         estimate D2E/DX2                !
 ! D40   D(15,19,20,23)        -52.7829         estimate D2E/DX2                !
 ! D41   D(24,19,20,21)          7.052          estimate D2E/DX2                !
 ! D42   D(24,19,20,22)       -114.0551         estimate D2E/DX2                !
 ! D43   D(24,19,20,23)        126.6052         estimate D2E/DX2                !
 ! D44   D(15,19,24,25)          0.5205         estimate D2E/DX2                !
 ! D45   D(15,19,24,26)       -178.4325         estimate D2E/DX2                !
 ! D46   D(20,19,24,25)       -178.8312         estimate D2E/DX2                !
 ! D47   D(20,19,24,26)          2.2158         estimate D2E/DX2                !
 ! D48   D(19,24,26,1)        -103.3711         estimate D2E/DX2                !
 ! D49   D(19,24,26,27)        135.8095         estimate D2E/DX2                !
 ! D50   D(19,24,26,28)         20.436          estimate D2E/DX2                !
 ! D51   D(25,24,26,1)          77.6362         estimate D2E/DX2                !
 ! D52   D(25,24,26,27)        -43.1832         estimate D2E/DX2                !
 ! D53   D(25,24,26,28)       -158.5567         estimate D2E/DX2                !
 --------------------------------------------------------------------------------
 Trust Radius=3.00D-01 FncErr=1.00D-07 GrdErr=1.00D-07 EigMax=2.50D+02 EigMin=1.00D-04
 Number of steps in this run=    138 maximum allowed number of steps=    168.
 GradGradGradGradGradGradGradGradGradGradGradGradGradGradGradGradGradGrad

 Leave Link  103 at Fri Sep 17 15:32:58 2021, MaxMem=   524288000 cpu:               0.1 elap:               0.1
 (Enter /opt/gaussian/g16_legacy/l202.exe)
                          Input orientation:                          
 ---------------------------------------------------------------------
 Center     Atomic      Atomic             Coordinates (Angstroms)
 Number     Number       Type             X           Y           Z
 ---------------------------------------------------------------------
      1          6           0       -0.754800    0.661800   -0.719000
      2          1           0       -0.583900   -0.279200   -1.255500
      3          1           0       -0.603300    1.446700   -1.472100
      4          6           0       -2.180100    0.733900   -0.210900
      5          6           0       -2.741500    2.126400   -0.079400
      6          1           0       -2.146600    2.713800    0.627000
      7          1           0       -3.775500    2.124500    0.281300
      8          1           0       -2.730800    2.633200   -1.050000
      9          6           0       -2.935900   -0.340700    0.090300
     10          1           0       -3.959600   -0.180200    0.427300
     11          6           0       -2.532100   -1.780400    0.041500
     12          1           0       -2.763300   -2.256300    1.000000
     13          1           0       -1.466100   -1.928000   -0.145500
     14          1           0       -3.095800   -2.298100   -0.740300
     15          6           0        3.935900   -0.165900   -0.593200
     16          1           0        4.131800    0.824100   -1.018300
     17          1           0        4.672400   -0.338900    0.198400
     18          1           0        4.095100   -0.905100   -1.385100
     19          6           0        2.539800   -0.285400   -0.040000
     20          6           0        2.226200   -1.626700    0.563600
     21          1           0        1.175800   -1.744000    0.839400
     22          1           0        2.831100   -1.785600    1.462100
     23          1           0        2.456300   -2.423600   -0.151900
     24          6           0        1.679700    0.749000   -0.116500
     25          1           0        2.015500    1.669100   -0.595100
     26          6           0        0.270400    0.812800    0.409300
     27          1           0        0.142500    1.782600    0.906800
     28          1           0        0.096500    0.060100    1.185200
 ---------------------------------------------------------------------
                    Distance matrix (angstroms):
                    1          2          3          4          5
     1  C    0.000000
     2  H    1.096595   0.000000
     3  H    1.098262   1.739547   0.000000
     4  C    1.514874   2.159957   2.141263   0.000000
     5  C    2.549729   3.438802   2.640739   1.507156   0.000000
     6  H    2.821263   3.865732   2.897160   2.150163   1.094507
     7  H    3.502102   4.280869   3.687367   2.172862   1.095109
     8  H    2.810793   3.624015   2.472288   2.148185   1.095000
     9  C    2.533213   2.710510   3.328200   1.347858   2.480559
    10  H    3.506239   3.773191   4.185603   2.099881   2.657238
    11  C    3.114723   2.780520   4.052830   2.551336   3.914275
    12  H    3.937555   3.707558   4.948645   3.278368   4.513717
    13  H    2.746255   2.174608   3.727317   2.756771   4.250785
    14  H    3.773823   3.263592   4.557589   3.211198   4.487596
    15  C    4.764827   4.569472   4.896660   6.193646   7.078580
    16  H    4.898447   4.848852   4.797368   6.363970   7.058312
    17  H    5.594419   5.453997   5.814804   6.948034   7.817979
    18  H    5.140077   4.722456   5.254854   6.591146   7.591702
    19  C    3.494656   3.351862   3.863956   4.831732   5.806071
    20  C    3.970977   3.608538   4.647142   5.058435   6.259173
    21  H    3.455966   3.103351   4.323054   4.301765   5.582959
    22  H    4.858564   4.617014   5.554493   5.853113   6.980962
    23  H    4.489149   3.880619   5.107181   5.609768   6.908320
    24  C    2.509462   2.734667   2.745273   3.860984   4.630941
    25  H    2.950350   3.314948   2.770687   4.315700   4.806674
    26  C    1.531959   2.166530   2.169066   2.528997   3.322035
    27  H    2.169001   3.074771   2.515594   2.782714   3.067286
    28  H    2.170883   2.556381   3.077925   2.754271   3.731361
                    6          7          8          9         10
     6  H    0.000000
     7  H    1.766380   0.000000
     8  H    1.777671   1.767069   0.000000
     9  C    3.200158   2.611249   3.191619   0.000000
    10  H    3.420831   2.316646   3.406991   1.089629   0.000000
    11  C    4.548544   4.105093   4.550903   1.496052   2.178816
    12  H    5.022085   4.553294   5.301959   2.127644   2.463597
    13  H    4.754592   4.683828   4.818935   2.176105   3.098459
    14  H    5.281063   4.589668   4.954479   2.132341   2.568062
    15  C    6.839471   8.091747   7.244896   6.907920   7.961190
    16  H    6.759903   8.118214   7.097121   7.248320   8.280648
    17  H    7.483411   8.800126   8.074605   7.609068   8.636493
    18  H    7.490247   8.596610   7.695763   7.206269   8.287850
    19  C    5.603788   6.767117   6.108809   5.477529   6.517027
    20  C    6.161602   7.083191   6.732184   5.340888   6.354137
    21  H    5.563761   6.308101   6.163703   4.408682   5.384016
    22  H    6.761619   7.767260   7.534665   6.101464   7.054199
    23  H    6.941632   7.727109   7.299576   5.785582   6.821443
    24  C    4.365066   5.639987   4.886117   4.746996   5.741153
    25  H    4.461839   5.874619   4.864544   5.387526   6.337747
    26  C    3.082707   4.255144   3.801396   3.422380   4.345029
    27  H    2.487046   3.982320   3.578888   3.827744   4.572716
    28  H    3.519262   4.480086   4.428384   3.248830   4.133292
                   11         12         13         14         15
    11  C    0.000000
    12  H    1.094832   0.000000
    13  H    1.092296   1.761442   0.000000
    14  H    1.094067   1.772272   1.773889   0.000000
    15  C    6.696602   7.196342   5.699740   7.349335   0.000000
    16  H    7.232853   7.816956   6.298597   7.878047   1.095074
    17  H    7.348970   7.720662   6.350172   8.066260   1.094985
    18  H    6.835285   7.385939   5.788772   7.352908   1.094928
    19  C    5.288274   5.752297   4.330877   6.025062   1.506455
    20  C    4.789325   5.047965   3.771828   5.520382   2.528873
    21  H    3.792953   3.975519   2.825512   4.587924   3.487247
    22  H    5.548157   5.633152   4.590271   6.343608   2.840470
    23  H    5.033413   5.347811   3.953591   5.584602   2.735173
    24  C    4.915495   5.478928   4.130766   5.699065   2.480871
    25  H    5.743255   6.386708   5.026212   6.471873   2.656156
    26  C    3.835879   4.355644   3.291690   4.725524   3.924124
    27  H    4.538414   4.976452   4.178933   5.463665   4.520679
    28  H    3.406615   3.684897   2.857450   4.411285   4.237308
                   16         17         18         19         20
    16  H    0.000000
    17  H    1.767817   0.000000
    18  H    1.768056   1.778013   0.000000
    19  C    2.173137   2.146551   2.147622   0.000000
    20  C    3.484270   2.788493   2.794803   1.503916   0.000000
    21  H    4.334065   3.822486   3.764899   2.182053   1.092321
    22  H    3.828151   2.660877   3.237209   2.142839   1.094740
    23  H    3.755730   3.062643   2.551919   2.142754   1.095416
    24  C    2.613748   3.199835   3.190541   1.347445   2.530840
    25  H    2.317725   3.423569   3.402255   2.098356   3.499897
    26  C    4.116865   4.555052   4.560634   2.560877   3.130515
    27  H    4.532025   5.051988   5.300904   3.304558   4.010351
    28  H    4.660768   4.698067   4.850449   2.755032   2.786988
                   21         22         23         24         25
    21  H    0.000000
    22  H    1.769040   0.000000
    23  H    1.756193   1.775532   0.000000
    24  C    2.717114   3.200296   3.266459   0.000000
    25  H    3.796332   4.102710   4.140160   1.090139   0.000000
    26  C    2.746263   3.797006   3.945553   1.505544   2.188023
    27  H    3.675481   4.502108   4.915957   2.116236   2.403480
    28  H    2.130550   3.310788   3.677670   2.162297   3.072606
                   26         27         28
    26  C    0.000000
    27  H    1.097441   0.000000
    28  H    1.094906   1.745459   0.000000
 Stoichiometry    C10H18
 Framework group  C1[X(C10H18)]
 Deg. of freedom    78
 Full point group                 C1      NOp   1
 Largest Abelian subgroup         C1      NOp   1
 Largest concise Abelian subgroup C1      NOp   1
                         Standard orientation:                         
 ---------------------------------------------------------------------
 Center     Atomic      Atomic             Coordinates (Angstroms)
 Number     Number       Type             X           Y           Z
 ---------------------------------------------------------------------
      1          6           0       -0.793741   -0.586569    0.589198
      2          1           0       -0.484632    0.235256    1.246142
      3          1           0       -0.746002   -1.484344    1.219992
      4          6           0       -2.220895   -0.386989    0.122035
      5          6           0       -2.975668   -1.654976   -0.184636
      6          1           0       -2.478677   -2.212209   -0.984909
      7          1           0       -4.003230   -1.458198   -0.508146
      8          1           0       -3.025223   -2.291762    0.704787
      9          6           0       -2.820229    0.813936   -0.001648
     10          1           0       -3.860343    0.846752   -0.324724
     11          6           0       -2.215757    2.161847    0.234832
     12          1           0       -2.388693    2.797200   -0.639854
     13          1           0       -1.137417    2.131950    0.406296
     14          1           0       -2.690840    2.635677    1.098986
     15          6           0        3.965067   -0.407959    0.429735
     16          1           0        4.023699   -1.466032    0.705836
     17          1           0        4.709034   -0.227480   -0.353164
     18          1           0        4.237061    0.181245    1.311622
     19          6           0        2.593444   -0.018222   -0.056230
     20          6           0        2.465978    1.425939   -0.456126
     21          1           0        1.439577    1.725953   -0.678963
     22          1           0        3.076393    1.626120   -1.342566
     23          1           0        2.815410    2.072769    0.355936
     24          6           0        1.596318   -0.923567   -0.097427
     25          1           0        1.803986   -1.940182    0.236896
     26          6           0        0.185963   -0.715544   -0.581461
     27          1           0       -0.084196   -1.577126   -1.205212
     28          1           0        0.111210    0.157039   -1.238599
 ---------------------------------------------------------------------
 Rotational constants (GHZ):           2.2181154           0.5802314           0.4854252
 Leave Link  202 at Fri Sep 17 15:32:59 2021, MaxMem=   524288000 cpu:               0.1 elap:               0.2
 (Enter /opt/gaussian/g16_legacy/l301.exe)
 Standard basis: 6-31G(d,p) (6D, 7F)
 Ernie: Thresh=  0.10000D-02 Tol=  0.10000D-05 Strict=F.
 There are   240 symmetry adapted cartesian basis functions of A   symmetry.
 There are   240 symmetry adapted basis functions of A   symmetry.
   240 basis functions,   406 primitive gaussians,   240 cartesian basis functions
    39 alpha electrons       39 beta electrons
       nuclear repulsion energy       516.4357587049 Hartrees.
 IExCor=    0 DFT=F Ex=HF Corr=None ExCW=0 ScaHFX=  1.000000
 ScaDFX=  1.000000  1.000000  1.000000  1.000000 ScalE2=  1.000000  1.000000
 IRadAn=      5 IRanWt=     -1 IRanGd=            0 ICorTp=0 IEmpDi=  4
 NAtoms=   28 NActive=   28 NUniq=   28 SFac= 1.00D+00 NAtFMM=   60 NAOKFM=F Big=F
 Integral buffers will be    131072 words long.
 Raffenetti 1 integral format.
 Two-electron integral symmetry is turned on.
 Leave Link  301 at Fri Sep 17 15:32:59 2021, MaxMem=   524288000 cpu:               0.1 elap:               0.4
 (Enter /opt/gaussian/g16_legacy/l302.exe)
 NPDir=0 NMtPBC=     1 NCelOv=     1 NCel=       1 NClECP=     1 NCelD=      1
         NCelK=      1 NCelE2=     1 NClLst=     1 CellRange=     0.0.
 One-electron integrals computed using PRISM.
 One-electron integral symmetry used in STVInt
 NBasis=   240 RedAO= T EigKep=  2.10D-03  NBF=   240
 NBsUse=   240 1.00D-06 EigRej= -1.00D+00 NBFU=   240
 Leave Link  302 at Fri Sep 17 15:33:01 2021, MaxMem=   524288000 cpu:               0.4 elap:               1.4
 (Enter /opt/gaussian/g16_legacy/l303.exe)
 DipDrv:  MaxL=1.
 Leave Link  303 at Fri Sep 17 15:33:01 2021, MaxMem=   524288000 cpu:               0.1 elap:               0.1
 (Enter /opt/gaussian/g16_legacy/l401.exe)
 ExpMin= 1.61D-01 ExpMax= 3.05D+03 ExpMxC= 4.57D+02 IAcc=3 IRadAn=         5 AccDes= 0.00D+00
 Harris functional with IExCor=  205 and IRadAn=       5 diagonalized for initial guess.
 HarFok:  IExCor=  205 AccDes= 0.00D+00 IRadAn=         5 IDoV= 1 UseB2=F ITyADJ=14
 ICtDFT=  3500011 ScaDFX=  1.000000  1.000000  1.000000  1.000000
 FoFCou: FMM=F IPFlag=           0 FMFlag=      100000 FMFlg1=           0
         NFxFlg=           0 DoJE=T BraDBF=F KetDBF=T FulRan=T
         wScrn=  0.000000 ICntrl=       500 IOpCl=  0 I1Cent=   200000004 NGrid=           0
         NMat0=    1 NMatS0=      1 NMatT0=    0 NMatD0=    1 NMtDS0=    0 NMtDT0=    0
 Petite list used in FoFCou.
 Harris En= -390.109899819843    
 JPrj=0 DoOrth=F DoCkMO=F.
 Leave Link  401 at Fri Sep 17 15:33:15 2021, MaxMem=   524288000 cpu:              12.4 elap:              13.0
 (Enter /opt/gaussian/g16_legacy/l502.exe)
 Keep R1 ints in memory in canonical form, NReq=425198025.
 FoFCou: FMM=F IPFlag=           0 FMFlag=           0 FMFlg1=           0
         NFxFlg=           0 DoJE=F BraDBF=F KetDBF=F FulRan=T
         wScrn=  0.000000 ICntrl=       600 IOpCl=  0 I1Cent=           0 NGrid=           0
         NMat0=    1 NMatS0=  28920 NMatT0=    0 NMatD0=    1 NMtDS0=    0 NMtDT0=    0
 Symmetry not used in FoFCou.
 Two-electron integral symmetry not used.
 Closed shell SCF:
 Using DIIS extrapolation, IDIIS=  1040.
 NGot=   524288000 LenX=   105970886 LenY=   105912845
 Requested convergence on RMS density matrix=1.00D-08 within 128 cycles.
 Requested convergence on MAX density matrix=1.00D-06.
 Requested convergence on             energy=1.00D-06.
 No special actions if energy rises.

 Cycle   1  Pass 1  IDiag  1:
 E= -388.533168667364    
 DIIS: error= 5.21D-02 at cycle   1 NSaved=   1.
 NSaved= 1 IEnMin= 1 EnMin= -388.533168667364     IErMin= 1 ErrMin= 5.21D-02
 ErrMax= 5.21D-02  0.00D+00 EMaxC= 1.00D-01 BMatC= 8.07D-01 BMatP= 8.07D-01
 IDIUse=3 WtCom= 4.79D-01 WtEn= 5.21D-01
 Coeff-Com:  0.100D+01
 Coeff-En:   0.100D+01
 Coeff:      0.100D+01
 Gap=     0.508 Goal=   None    Shift=    0.000
 GapD=    0.508 DampG=2.000 DampE=0.500 DampFc=1.0000 IDamp=-1.
 RMSDP=4.00D-03 MaxDP=1.14D-01              OVMax= 1.33D-01

 Cycle   2  Pass 1  IDiag  1:
 E= -389.073869817783     Delta-E=       -0.540701150420 Rises=F Damp=F
 DIIS: error= 1.59D-02 at cycle   2 NSaved=   2.
 NSaved= 2 IEnMin= 2 EnMin= -389.073869817783     IErMin= 2 ErrMin= 1.59D-02
 ErrMax= 1.59D-02  0.00D+00 EMaxC= 1.00D-01 BMatC= 8.66D-02 BMatP= 8.07D-01
 IDIUse=3 WtCom= 8.41D-01 WtEn= 1.59D-01
 Coeff-Com:  0.183D+00 0.817D+00
 Coeff-En:   0.000D+00 0.100D+01
 Coeff:      0.154D+00 0.846D+00
 Gap=     0.549 Goal=   None    Shift=    0.000
 RMSDP=1.63D-03 MaxDP=3.04D-02 DE=-5.41D-01 OVMax= 4.61D-02

 Cycle   3  Pass 1  IDiag  1:
 E= -389.151429911067     Delta-E=       -0.077560093284 Rises=F Damp=F
 DIIS: error= 3.43D-03 at cycle   3 NSaved=   3.
 NSaved= 3 IEnMin= 3 EnMin= -389.151429911067     IErMin= 3 ErrMin= 3.43D-03
 ErrMax= 3.43D-03  0.00D+00 EMaxC= 1.00D-01 BMatC= 3.14D-03 BMatP= 8.66D-02
 IDIUse=3 WtCom= 9.66D-01 WtEn= 3.43D-02
 Coeff-Com: -0.245D-01 0.106D+00 0.919D+00
 Coeff-En:   0.000D+00 0.000D+00 0.100D+01
 Coeff:     -0.236D-01 0.102D+00 0.921D+00
 Gap=     0.499 Goal=   None    Shift=    0.000
 RMSDP=2.59D-04 MaxDP=7.14D-03 DE=-7.76D-02 OVMax= 1.01D-02

 Cycle   4  Pass 1  IDiag  1:
 E= -389.155055372904     Delta-E=       -0.003625461836 Rises=F Damp=F
 DIIS: error= 5.31D-04 at cycle   4 NSaved=   4.
 NSaved= 4 IEnMin= 4 EnMin= -389.155055372904     IErMin= 4 ErrMin= 5.31D-04
 ErrMax= 5.31D-04  0.00D+00 EMaxC= 1.00D-01 BMatC= 9.28D-05 BMatP= 3.14D-03
 IDIUse=3 WtCom= 9.95D-01 WtEn= 5.31D-03
 Coeff-Com: -0.423D-02-0.190D-02 0.949D-01 0.911D+00
 Coeff-En:   0.000D+00 0.000D+00 0.000D+00 0.100D+01
 Coeff:     -0.421D-02-0.189D-02 0.943D-01 0.912D+00
 Gap=     0.499 Goal=   None    Shift=    0.000
 RMSDP=7.39D-05 MaxDP=1.49D-03 DE=-3.63D-03 OVMax= 3.14D-03

 Cycle   5  Pass 1  IDiag  1:
 E= -389.155179665309     Delta-E=       -0.000124292406 Rises=F Damp=F
 DIIS: error= 1.63D-04 at cycle   5 NSaved=   5.
 NSaved= 5 IEnMin= 5 EnMin= -389.155179665309     IErMin= 5 ErrMin= 1.63D-04
 ErrMax= 1.63D-04  0.00D+00 EMaxC= 1.00D-01 BMatC= 1.60D-05 BMatP= 9.28D-05
 IDIUse=3 WtCom= 9.98D-01 WtEn= 1.63D-03
 Coeff-Com:  0.241D-02-0.152D-01-0.102D+00 0.176D+00 0.939D+00
 Coeff-En:   0.000D+00 0.000D+00 0.000D+00 0.000D+00 0.100D+01
 Coeff:      0.241D-02-0.152D-01-0.102D+00 0.175D+00 0.939D+00
 Gap=     0.500 Goal=   None    Shift=    0.000
 RMSDP=3.00D-05 MaxDP=6.56D-04 DE=-1.24D-04 OVMax= 9.23D-04

 Cycle   6  Pass 1  IDiag  1:
 E= -389.155201139107     Delta-E=       -0.000021473797 Rises=F Damp=F
 DIIS: error= 3.58D-05 at cycle   6 NSaved=   6.
 NSaved= 6 IEnMin= 6 EnMin= -389.155201139107     IErMin= 6 ErrMin= 3.58D-05
 ErrMax= 3.58D-05  0.00D+00 EMaxC= 1.00D-01 BMatC= 5.50D-07 BMatP= 1.60D-05
 IDIUse=1 WtCom= 1.00D+00 WtEn= 0.00D+00
 Coeff-Com:  0.720D-03-0.335D-02-0.261D-01-0.432D-02 0.177D+00 0.856D+00
 Coeff:      0.720D-03-0.335D-02-0.261D-01-0.432D-02 0.177D+00 0.856D+00
 Gap=     0.500 Goal=   None    Shift=    0.000
 RMSDP=5.30D-06 MaxDP=1.61D-04 DE=-2.15D-05 OVMax= 3.24D-04

 Cycle   7  Pass 1  IDiag  1:
 E= -389.155201980028     Delta-E=       -0.000000840922 Rises=F Damp=F
 DIIS: error= 1.03D-05 at cycle   7 NSaved=   7.
 NSaved= 7 IEnMin= 7 EnMin= -389.155201980028     IErMin= 7 ErrMin= 1.03D-05
 ErrMax= 1.03D-05  0.00D+00 EMaxC= 1.00D-01 BMatC= 5.45D-08 BMatP= 5.50D-07
 IDIUse=1 WtCom= 1.00D+00 WtEn= 0.00D+00
 Coeff-Com: -0.494D-04 0.464D-03 0.301D-02-0.105D-01-0.468D-01 0.145D+00
 Coeff-Com:  0.909D+00
 Coeff:     -0.494D-04 0.464D-03 0.301D-02-0.105D-01-0.468D-01 0.145D+00
 Coeff:      0.909D+00
 Gap=     0.500 Goal=   None    Shift=    0.000
 RMSDP=1.71D-06 MaxDP=4.10D-05 DE=-8.41D-07 OVMax= 8.42D-05

 Cycle   8  Pass 1  IDiag  1:
 E= -389.155202068991     Delta-E=       -0.000000088963 Rises=F Damp=F
 DIIS: error= 3.51D-06 at cycle   8 NSaved=   8.
 NSaved= 8 IEnMin= 8 EnMin= -389.155202068991     IErMin= 8 ErrMin= 3.51D-06
 ErrMax= 3.51D-06  0.00D+00 EMaxC= 1.00D-01 BMatC= 5.10D-09 BMatP= 5.45D-08
 IDIUse=1 WtCom= 1.00D+00 WtEn= 0.00D+00
 Coeff-Com: -0.581D-04 0.249D-03 0.208D-02 0.315D-02-0.171D-01-0.804D-01
 Coeff-Com: -0.123D+00 0.121D+01
 Coeff:     -0.581D-04 0.249D-03 0.208D-02 0.315D-02-0.171D-01-0.804D-01
 Coeff:     -0.123D+00 0.121D+01
 Gap=     0.500 Goal=   None    Shift=    0.000
 RMSDP=7.85D-07 MaxDP=2.41D-05 DE=-8.90D-08 OVMax= 5.81D-05

 Cycle   9  Pass 1  IDiag  1:
 E= -389.155202084874     Delta-E=       -0.000000015883 Rises=F Damp=F
 DIIS: error= 1.46D-06 at cycle   9 NSaved=   9.
 NSaved= 9 IEnMin= 9 EnMin= -389.155202084874     IErMin= 9 ErrMin= 1.46D-06
 ErrMax= 1.46D-06  0.00D+00 EMaxC= 1.00D-01 BMatC= 7.39D-10 BMatP= 5.10D-09
 IDIUse=1 WtCom= 1.00D+00 WtEn= 0.00D+00
 Coeff-Com:  0.929D-05-0.690D-04-0.480D-03 0.144D-02 0.386D-02 0.955D-04
 Coeff-Com: -0.865D-01-0.120D+00 0.120D+01
 Coeff:      0.929D-05-0.690D-04-0.480D-03 0.144D-02 0.386D-02 0.955D-04
 Coeff:     -0.865D-01-0.120D+00 0.120D+01
 Gap=     0.500 Goal=   None    Shift=    0.000
 RMSDP=2.99D-07 MaxDP=1.24D-05 DE=-1.59D-08 OVMax= 2.71D-05

 Cycle  10  Pass 1  IDiag  1:
 E= -389.155202087291     Delta-E=       -0.000000002417 Rises=F Damp=F
 DIIS: error= 3.97D-07 at cycle  10 NSaved=  10.
 NSaved=10 IEnMin=10 EnMin= -389.155202087291     IErMin=10 ErrMin= 3.97D-07
 ErrMax= 3.97D-07  0.00D+00 EMaxC= 1.00D-01 BMatC= 1.21D-10 BMatP= 7.39D-10
 IDIUse=1 WtCom= 1.00D+00 WtEn= 0.00D+00
 Coeff-Com:  0.952D-05-0.464D-04-0.369D-03-0.135D-03 0.233D-02 0.142D-01
 Coeff-Com:  0.595D-02-0.211D+00 0.143D+00 0.105D+01
 Coeff:      0.952D-05-0.464D-04-0.369D-03-0.135D-03 0.233D-02 0.142D-01
 Coeff:      0.595D-02-0.211D+00 0.143D+00 0.105D+01
 Gap=     0.500 Goal=   None    Shift=    0.000
 RMSDP=1.24D-07 MaxDP=3.07D-06 DE=-2.42D-09 OVMax= 9.88D-06

 Cycle  11  Pass 1  IDiag  1:
 E= -389.155202087617     Delta-E=       -0.000000000326 Rises=F Damp=F
 DIIS: error= 1.55D-07 at cycle  11 NSaved=  11.
 NSaved=11 IEnMin=11 EnMin= -389.155202087617     IErMin=11 ErrMin= 1.55D-07
 ErrMax= 1.55D-07  0.00D+00 EMaxC= 1.00D-01 BMatC= 9.54D-12 BMatP= 1.21D-10
 IDIUse=1 WtCom= 1.00D+00 WtEn= 0.00D+00
 Coeff-Com:  0.394D-06 0.839D-06 0.101D-05-0.149D-03-0.305D-03 0.278D-02
 Coeff-Com:  0.110D-01-0.153D-01-0.107D+00 0.164D+00 0.945D+00
 Coeff:      0.394D-06 0.839D-06 0.101D-05-0.149D-03-0.305D-03 0.278D-02
 Coeff:      0.110D-01-0.153D-01-0.107D+00 0.164D+00 0.945D+00
 Gap=     0.500 Goal=   None    Shift=    0.000
 RMSDP=2.77D-08 MaxDP=1.16D-06 DE=-3.26D-10 OVMax= 2.51D-06

 Cycle  12  Pass 1  IDiag  1:
 E= -389.155202087624     Delta-E=       -0.000000000007 Rises=F Damp=F
 DIIS: error= 3.64D-08 at cycle  12 NSaved=  12.
 NSaved=12 IEnMin=12 EnMin= -389.155202087624     IErMin=12 ErrMin= 3.64D-08
 ErrMax= 3.64D-08  0.00D+00 EMaxC= 1.00D-01 BMatC= 1.17D-12 BMatP= 9.54D-12
 IDIUse=1 WtCom= 1.00D+00 WtEn= 0.00D+00
 Coeff-Com: -0.102D-05 0.547D-05 0.429D-04 0.320D-05-0.343D-03-0.126D-02
 Coeff-Com:  0.367D-03 0.217D-01-0.321D-01-0.113D+00 0.983D-01 0.103D+01
 Coeff:     -0.102D-05 0.547D-05 0.429D-04 0.320D-05-0.343D-03-0.126D-02
 Coeff:      0.367D-03 0.217D-01-0.321D-01-0.113D+00 0.983D-01 0.103D+01
 Gap=     0.500 Goal=   None    Shift=    0.000
 RMSDP=1.18D-08 MaxDP=3.33D-07 DE=-6.93D-12 OVMax= 8.46D-07

 Cycle  13  Pass 1  IDiag  1:
 E= -389.155202087625     Delta-E=       -0.000000000000 Rises=F Damp=F
 DIIS: error= 1.06D-08 at cycle  13 NSaved=  13.
 NSaved=13 IEnMin=13 EnMin= -389.155202087625     IErMin=13 ErrMin= 1.06D-08
 ErrMax= 1.06D-08  0.00D+00 EMaxC= 1.00D-01 BMatC= 5.48D-14 BMatP= 1.17D-12
 IDIUse=1 WtCom= 1.00D+00 WtEn= 0.00D+00
 Coeff-Com: -0.122D-06 0.462D-06 0.389D-05 0.136D-04-0.170D-04-0.298D-03
 Coeff-Com: -0.849D-03 0.352D-02 0.516D-02-0.213D-01-0.612D-01 0.111D+00
 Coeff-Com:  0.964D+00
 Coeff:     -0.122D-06 0.462D-06 0.389D-05 0.136D-04-0.170D-04-0.298D-03
 Coeff:     -0.849D-03 0.352D-02 0.516D-02-0.213D-01-0.612D-01 0.111D+00
 Coeff:      0.964D+00
 Gap=     0.500 Goal=   None    Shift=    0.000
 RMSDP=2.13D-09 MaxDP=7.03D-08 DE=-4.55D-13 OVMax= 1.05D-07

 SCF Done:  E(RHF) =  -389.155202088     A.U. after   13 cycles
            NFock= 13  Conv=0.21D-08     -V/T= 2.0014
 KE= 3.886260094878D+02 PE=-1.937505372512D+03 EE= 6.432884022316D+02
 Leave Link  502 at Fri Sep 17 15:33:48 2021, MaxMem=   524288000 cpu:              32.2 elap:              33.2
 (Enter /opt/gaussian/g16_legacy/l801.exe)
 ExpMin= 1.61D-01 ExpMax= 3.05D+03 ExpMxC= 4.57D+02 IAcc=3 IRadAn=         5 AccDes= 0.00D+00
 HarFok:  IExCor=  205 AccDes= 0.00D+00 IRadAn=         5 IDoV=-2 UseB2=F ITyADJ=14
 ICtDFT= 12500011 ScaDFX=  1.000000  1.000000  1.000000  1.000000
 Largest valence mixing into a core orbital is  1.98D-04
 Largest core mixing into a valence orbital is  3.52D-05
 Range of M.O.s used for correlation:    11   240
 NBasis=   240 NAE=    39 NBE=    39 NFC=    10 NFV=     0
 NROrb=    230 NOA=    29 NOB=    29 NVA=   201 NVB=   201
 Leave Link  801 at Fri Sep 17 15:33:50 2021, MaxMem=   524288000 cpu:               1.6 elap:               1.9
 (Enter /opt/gaussian/g16_legacy/l906.exe)
 Frozen-core derivative calculation, NFC=  10 NFV=   0.
 FulOut=F Deriv=T AODrv=T NAtomX=    28
   MMem=          88  MDisk=          29 MDiskD=          29
  W3Min=     2246400 MinDsk=     2795480 NBas6D=         240
 NBas2D=       29244    NTT=       28920    LW2=     2040000
    MDV=   523626386 MDiskM=       30186 NBas2p=       24383
 Fully direct method using O(ONN) memory.
 IMap=   1   2   3   4   5   6   7   8   9  10  11  12  13  14  15  16  17  18  19  20
 IMap=  21  22  23  24  25  26  27  28  29  30  31  32  33  34  35  36  37  38  39
 JobTyp=1 Pass  1:  I=  11 to  39 NPSUse=  1 ParTrn=F ParDer=F DoDerP=T.
 Spin components of T(2) and E(2):
     alpha-alpha T2 =       0.5715205685D-01 E2=     -0.1638036942D+00
     alpha-beta  T2 =       0.3618181052D+00 E2=     -0.1089340639D+01
     beta-beta   T2 =       0.5715205685D-01 E2=     -0.1638036942D+00
 The integrals were generated   1 times.
 ANorm=    0.1214957703D+01
 E2 =    -0.1416948027D+01 EUMP2 =    -0.39057215011481D+03
 Leave Link  906 at Fri Sep 17 15:38:12 2021, MaxMem=   524288000 cpu:             262.0 elap:             262.5
 (Enter /opt/gaussian/g16_legacy/l1002.exe)
 Minotr:  Closed shell wavefunction.
          Computing MP2/KS-MP2 derivatives.
          Using Z-Vector for PSCF gradient.
          Skipping F1 and S1 gradient terms here.
          IDoAtm=1111111111111111111111111111
          Frozen-core window.
          Direct CPHF calculation.
          Differentiating once with respect to electric field.
                with respect to dipole field.
          Differentiating once with respect to nuclear coordinates.
          Requested convergence is 1.0D-10 RMS, and 1.0D-09 maximum.
          NewPWx=F KeepS1=T KeepF1=T KeepIn=T MapXYZ=F SortEE=F KeepMc=T.
 Keep R1 ints in memory in canonical form, NReq=425201067.
 FoFCou: FMM=F IPFlag=           0 FMFlag=           0 FMFlg1=           0
         NFxFlg=           0 DoJE=F BraDBF=F KetDBF=F FulRan=T
         wScrn=  0.000000 ICntrl=       600 IOpCl=  0 I1Cent=           0 NGrid=           0
         NMat0=    1 NMatS0=  28920 NMatT0=    0 NMatD0=    1 NMtDS0=    0 NMtDT0=    0
 Symmetry not used in FoFCou.
 Two-electron integral symmetry not used.
          MDV=     524288000 using IRadAn=       5.
          Solving linear equations separately, MaxMat=       0.
          There are     1 degrees of freedom in the 1st order CPHF.  IDoFFX=0 NUNeed=     1.
 LinEq1:  Iter=  0 NonCon=     1 RMS=2.55D-03 Max=3.76D-02 NDo=     1
 AX will form     1 AO Fock derivatives at one time.
 LinEq1:  Iter=  1 NonCon=     1 RMS=6.90D-04 Max=9.74D-03 NDo=     1
 LinEq1:  Iter=  2 NonCon=     1 RMS=1.61D-04 Max=4.14D-03 NDo=     1
 LinEq1:  Iter=  3 NonCon=     1 RMS=4.31D-05 Max=5.07D-04 NDo=     1
 LinEq1:  Iter=  4 NonCon=     1 RMS=1.99D-05 Max=8.55D-04 NDo=     1
 LinEq1:  Iter=  5 NonCon=     1 RMS=5.06D-06 Max=8.27D-05 NDo=     1
 LinEq1:  Iter=  6 NonCon=     1 RMS=1.63D-06 Max=2.68D-05 NDo=     1
 LinEq1:  Iter=  7 NonCon=     1 RMS=4.13D-07 Max=4.19D-06 NDo=     1
 LinEq1:  Iter=  8 NonCon=     1 RMS=1.01D-07 Max=1.86D-06 NDo=     1
 LinEq1:  Iter=  9 NonCon=     1 RMS=2.33D-08 Max=6.32D-07 NDo=     1
 LinEq1:  Iter= 10 NonCon=     1 RMS=6.42D-09 Max=1.62D-07 NDo=     1
 LinEq1:  Iter= 11 NonCon=     1 RMS=1.89D-09 Max=3.63D-08 NDo=     1
 LinEq1:  Iter= 12 NonCon=     1 RMS=4.09D-10 Max=6.39D-09 NDo=     1
 LinEq1:  Iter= 13 NonCon=     1 RMS=1.01D-10 Max=1.12D-09 NDo=     1
 LinEq1:  Iter= 14 NonCon=     1 RMS=3.51D-11 Max=1.11D-09 NDo=     1
 LinEq1:  Iter= 15 NonCon=     0 RMS=1.04D-11 Max=1.51D-10 NDo=     1
 Linear equations converged to 1.000D-10 1.000D-09 after    15 iterations.
 End of Minotr F.D. properties file   721 does not exist.
 End of Minotr F.D. properties file   722 does not exist.
 End of Minotr F.D. properties file   788 does not exist.
 Leave Link 1002 at Fri Sep 17 15:38:56 2021, MaxMem=   524288000 cpu:              43.2 elap:              43.3
 (Enter /opt/gaussian/g16_legacy/l601.exe)
 Copying SCF densities to generalized density rwf, IOpCl= 0 IROHF=0.

 **********************************************************************

            Population analysis using the SCF density.

 **********************************************************************

 Orbital symmetries:
       Occupied  (A) (A) (A) (A) (A) (A) (A) (A) (A) (A) (A) (A)
                 (A) (A) (A) (A) (A) (A) (A) (A) (A) (A) (A) (A)
                 (A) (A) (A) (A) (A) (A) (A) (A) (A) (A) (A) (A)
                 (A) (A) (A)
       Virtual   (A) (A) (A) (A) (A) (A) (A) (A) (A) (A) (A) (A)
                 (A) (A) (A) (A) (A) (A) (A) (A) (A) (A) (A) (A)
                 (A) (A) (A) (A) (A) (A) (A) (A) (A) (A) (A) (A)
                 (A) (A) (A) (A) (A) (A) (A) (A) (A) (A) (A) (A)
                 (A) (A) (A) (A) (A) (A) (A) (A) (A) (A) (A) (A)
                 (A) (A) (A) (A) (A) (A) (A) (A) (A) (A) (A) (A)
                 (A) (A) (A) (A) (A) (A) (A) (A) (A) (A) (A) (A)
                 (A) (A) (A) (A) (A) (A) (A) (A) (A) (A) (A) (A)
                 (A) (A) (A) (A) (A) (A) (A) (A) (A) (A) (A) (A)
                 (A) (A) (A) (A) (A) (A) (A) (A) (A) (A) (A) (A)
                 (A) (A) (A) (A) (A) (A) (A) (A) (A) (A) (A) (A)
                 (A) (A) (A) (A) (A) (A) (A) (A) (A) (A) (A) (A)
                 (A) (A) (A) (A) (A) (A) (A) (A) (A) (A) (A) (A)
                 (A) (A) (A) (A) (A) (A) (A) (A) (A) (A) (A) (A)
                 (A) (A) (A) (A) (A) (A) (A) (A) (A) (A) (A) (A)
                 (A) (A) (A) (A) (A) (A) (A) (A) (A) (A) (A) (A)
                 (A) (A) (A) (A) (A) (A) (A) (A) (A)
 The electronic state is 1-A.
 Alpha  occ. eigenvalues --  -11.23060 -11.22506 -11.21999 -11.21921 -11.21883
 Alpha  occ. eigenvalues --  -11.21650 -11.21553 -11.21484 -11.21456 -11.21438
 Alpha  occ. eigenvalues --   -1.10623  -1.08327  -1.01912  -0.98014  -0.93647
 Alpha  occ. eigenvalues --   -0.91775  -0.86753  -0.82685  -0.70599  -0.69343
 Alpha  occ. eigenvalues --   -0.64585  -0.61545  -0.60102  -0.59030  -0.58088
 Alpha  occ. eigenvalues --   -0.56803  -0.55367  -0.55150  -0.53548  -0.51981
 Alpha  occ. eigenvalues --   -0.51717  -0.51321  -0.50591  -0.49228  -0.48277
 Alpha  occ. eigenvalues --   -0.46015  -0.44273  -0.33354  -0.31524
 Alpha virt. eigenvalues --    0.18455   0.19493   0.22038   0.24453   0.25183
 Alpha virt. eigenvalues --    0.27141   0.28395   0.28931   0.30249   0.30505
 Alpha virt. eigenvalues --    0.31238   0.32116   0.33135   0.33437   0.34031
 Alpha virt. eigenvalues --    0.35677   0.35774   0.36970   0.38997   0.40647
 Alpha virt. eigenvalues --    0.41064   0.42595   0.43321   0.44192   0.45151
 Alpha virt. eigenvalues --    0.51684   0.54045   0.61170   0.62445   0.70138
 Alpha virt. eigenvalues --    0.71101   0.71887   0.74279   0.76417   0.76615
 Alpha virt. eigenvalues --    0.76877   0.78796   0.79454   0.81139   0.82036
 Alpha virt. eigenvalues --    0.83812   0.85655   0.88080   0.91266   0.92028
 Alpha virt. eigenvalues --    0.92895   0.95178   0.97057   0.98263   0.99207
 Alpha virt. eigenvalues --    0.99751   1.00204   1.02303   1.03925   1.06182
 Alpha virt. eigenvalues --    1.07864   1.08639   1.08809   1.11198   1.12390
 Alpha virt. eigenvalues --    1.12561   1.13432   1.14584   1.14926   1.15820
 Alpha virt. eigenvalues --    1.16162   1.16402   1.18223   1.18706   1.20094
 Alpha virt. eigenvalues --    1.20662   1.22068   1.22854   1.25018   1.27539
 Alpha virt. eigenvalues --    1.34169   1.40670   1.41848   1.43738   1.45168
 Alpha virt. eigenvalues --    1.47559   1.53475   1.56255   1.56977   1.58248
 Alpha virt. eigenvalues --    1.59850   1.62720   1.65796   1.69520   1.70789
 Alpha virt. eigenvalues --    1.75329   1.82526   1.92036   1.92194   1.95500
 Alpha virt. eigenvalues --    1.98629   2.01127   2.02851   2.04185   2.08703
 Alpha virt. eigenvalues --    2.09244   2.11124   2.11377   2.13103   2.14508
 Alpha virt. eigenvalues --    2.15428   2.17690   2.19725   2.23578   2.27382
 Alpha virt. eigenvalues --    2.28336   2.29994   2.32199   2.34975   2.35568
 Alpha virt. eigenvalues --    2.35647   2.35784   2.39323   2.39851   2.40351
 Alpha virt. eigenvalues --    2.41284   2.41828   2.43037   2.45160   2.45385
 Alpha virt. eigenvalues --    2.47037   2.48343   2.49336   2.50338   2.54525
 Alpha virt. eigenvalues --    2.56586   2.57721   2.61275   2.62186   2.64354
 Alpha virt. eigenvalues --    2.66339   2.67159   2.72032   2.72994   2.73747
 Alpha virt. eigenvalues --    2.75717   2.77700   2.81091   2.82804   2.85159
 Alpha virt. eigenvalues --    2.87728   2.89154   2.91918   2.93443   2.94436
 Alpha virt. eigenvalues --    2.97095   2.99035   3.01167   3.02602   3.05100
 Alpha virt. eigenvalues --    3.05824   3.06636   3.08509   3.13018   3.15943
 Alpha virt. eigenvalues --    3.17139   3.18164   3.19616   3.20680   3.21266
 Alpha virt. eigenvalues --    3.23191   3.24414   3.26464   3.27243   3.36666
 Alpha virt. eigenvalues --    3.39072   3.44604   3.45616   3.55552   3.57291
 Alpha virt. eigenvalues --    3.58699   3.61058   3.66894   3.73956   3.78201
 Alpha virt. eigenvalues --    3.78869   3.80516   3.81327   3.82331   3.82837
 Alpha virt. eigenvalues --    3.84211   3.85753   3.87659   3.89511   3.91174
 Alpha virt. eigenvalues --    3.95899   4.59094   4.62633   4.74430   4.82816
 Alpha virt. eigenvalues --    4.88836   4.92668   4.93352   5.07550   5.10288
 Alpha virt. eigenvalues --    5.16869
          Condensed to atoms (all electrons):
               1          2          3          4          5          6
     1  C    5.001779   0.412351   0.413516   0.340289  -0.058746  -0.000531
     2  H    0.412351   0.571692  -0.030226  -0.040534   0.003238  -0.000030
     3  H    0.413516  -0.030226   0.588452  -0.045054  -0.004689  -0.000276
     4  C    0.340289  -0.040534  -0.045054   4.955116   0.349330  -0.045817
     5  C   -0.058746   0.003238  -0.004689   0.349330   4.896466   0.400282
     6  H   -0.000531  -0.000030  -0.000276  -0.045817   0.400282   0.594776
     7  H    0.003676  -0.000103   0.000081  -0.041406   0.406183  -0.028073
     8  H   -0.003555  -0.000016   0.002571  -0.043073   0.397371  -0.035022
     9  C   -0.044036  -0.002232   0.001918   0.698829  -0.045939  -0.001034
    10  H    0.003078   0.000060  -0.000114  -0.036526  -0.006481   0.000123
    11  C   -0.007062  -0.002134   0.000138  -0.050684   0.003425  -0.000100
    12  H    0.000232  -0.000034  -0.000010   0.000594  -0.000100   0.000015
    13  H   -0.001829  -0.001333   0.000004  -0.000419   0.000093   0.000000
    14  H    0.000227   0.000172   0.000028  -0.001412  -0.000116  -0.000005
    15  C   -0.000101  -0.000042  -0.000000   0.000002  -0.000000  -0.000000
    16  H   -0.000003  -0.000002   0.000002   0.000000  -0.000000  -0.000000
    17  H   -0.000004   0.000001   0.000000   0.000000  -0.000000   0.000000
    18  H    0.000022  -0.000005  -0.000001  -0.000000   0.000000   0.000000
    19  C   -0.003607   0.001046   0.000615   0.000006  -0.000002   0.000000
    20  C    0.000597   0.000160  -0.000016  -0.000017  -0.000000  -0.000000
    21  H   -0.000053  -0.000052  -0.000012  -0.000027  -0.000000   0.000000
    22  H   -0.000041   0.000014   0.000000   0.000001  -0.000000   0.000000
    23  H    0.000077  -0.000076  -0.000001  -0.000002   0.000000   0.000000
    24  C   -0.063074  -0.000807  -0.000607   0.006131  -0.000158  -0.000086
    25  H    0.000004   0.000213   0.001003  -0.000155   0.000010   0.000012
    26  C    0.326230  -0.039857  -0.044594  -0.057366  -0.000188   0.000811
    27  H   -0.045136   0.004291  -0.002604  -0.001852  -0.000392  -0.000187
    28  H   -0.040287  -0.002144   0.004202  -0.001437   0.000317  -0.000009
               7          8          9         10         11         12
     1  C    0.003676  -0.003555  -0.044036   0.003078  -0.007062   0.000232
     2  H   -0.000103  -0.000016  -0.002232   0.000060  -0.002134  -0.000034
     3  H    0.000081   0.002571   0.001918  -0.000114   0.000138  -0.000010
     4  C   -0.041406  -0.043073   0.698829  -0.036526  -0.050684   0.000594
     5  C    0.406183   0.397371  -0.045939  -0.006481   0.003425  -0.000100
     6  H   -0.028073  -0.035022  -0.001034   0.000123  -0.000100   0.000015
     7  H    0.571006  -0.027609  -0.002738   0.002222   0.000137  -0.000009
     8  H   -0.027609   0.593679  -0.000426   0.000248  -0.000114  -0.000004
     9  C   -0.002738  -0.000426   4.939969   0.404879   0.337717  -0.042845
    10  H    0.002222   0.000248   0.404879   0.559338  -0.043640  -0.002647
    11  C    0.000137  -0.000114   0.337717  -0.043640   4.906219   0.403005
    12  H   -0.000009  -0.000004  -0.042845  -0.002647   0.403005   0.586821
    13  H    0.000004  -0.000001  -0.041937   0.003315   0.408016  -0.030020
    14  H   -0.000004   0.000021  -0.044356  -0.000221   0.400041  -0.033281
    15  C    0.000000  -0.000000  -0.000000   0.000000  -0.000000  -0.000000
    16  H    0.000000  -0.000000  -0.000000   0.000000   0.000000  -0.000000
    17  H    0.000000   0.000000   0.000000   0.000000  -0.000000  -0.000000
    18  H   -0.000000  -0.000000  -0.000000  -0.000000   0.000000   0.000000
    19  C    0.000000   0.000000   0.000001   0.000000   0.000007   0.000000
    20  C   -0.000000  -0.000000   0.000010  -0.000000  -0.000097  -0.000004
    21  H    0.000000  -0.000000  -0.000032   0.000000   0.000040   0.000042
    22  H    0.000000   0.000000   0.000000   0.000000   0.000002  -0.000000
    23  H   -0.000000  -0.000000   0.000000  -0.000000  -0.000003   0.000000
    24  C    0.000003   0.000001   0.000070   0.000002  -0.000032  -0.000004
    25  H   -0.000000  -0.000002  -0.000002  -0.000000   0.000000   0.000000
    26  C   -0.000097   0.000027  -0.004366  -0.000116   0.000690   0.000091
    27  H   -0.000025   0.000093   0.000514   0.000004  -0.000030   0.000000
    28  H   -0.000010   0.000012   0.001215  -0.000044   0.000070  -0.000079
              13         14         15         16         17         18
     1  C   -0.001829   0.000227  -0.000101  -0.000003  -0.000004   0.000022
     2  H   -0.001333   0.000172  -0.000042  -0.000002   0.000001  -0.000005
     3  H    0.000004   0.000028  -0.000000   0.000002   0.000000  -0.000001
     4  C   -0.000419  -0.001412   0.000002   0.000000   0.000000  -0.000000
     5  C    0.000093  -0.000116  -0.000000  -0.000000  -0.000000   0.000000
     6  H    0.000000  -0.000005  -0.000000  -0.000000   0.000000   0.000000
     7  H    0.000004  -0.000004   0.000000   0.000000   0.000000  -0.000000
     8  H   -0.000001   0.000021  -0.000000  -0.000000   0.000000  -0.000000
     9  C   -0.041937  -0.044356  -0.000000  -0.000000   0.000000  -0.000000
    10  H    0.003315  -0.000221   0.000000   0.000000   0.000000  -0.000000
    11  C    0.408016   0.400041  -0.000000   0.000000  -0.000000   0.000000
    12  H   -0.030020  -0.033281  -0.000000  -0.000000  -0.000000   0.000000
    13  H    0.573917  -0.026854   0.000000  -0.000000  -0.000000  -0.000000
    14  H   -0.026854   0.584216   0.000000  -0.000000   0.000000  -0.000000
    15  C    0.000000   0.000000   4.903233   0.405433   0.399260   0.396991
    16  H   -0.000000  -0.000000   0.405433   0.568009  -0.027566  -0.027367
    17  H   -0.000000   0.000000   0.399260  -0.027566   0.593103  -0.034901
    18  H   -0.000000  -0.000000   0.396991  -0.027367  -0.034901   0.594298
    19  C   -0.000013  -0.000000   0.352279  -0.040391  -0.045776  -0.044305
    20  C    0.000009   0.000002  -0.065368   0.003695  -0.001105  -0.002140
    21  H    0.000571  -0.000008   0.003677  -0.000108  -0.000023  -0.000072
    22  H   -0.000006   0.000000  -0.001684  -0.000079   0.002553  -0.000371
    23  H    0.000034  -0.000000  -0.003429   0.000010  -0.000507   0.002847
    24  C    0.000003   0.000002  -0.044864  -0.002386  -0.001136  -0.000547
    25  H   -0.000001   0.000000  -0.006748   0.002177   0.000150   0.000235
    26  C   -0.000212  -0.000050   0.003153   0.000146  -0.000124  -0.000086
    27  H   -0.000008  -0.000000  -0.000102  -0.000011   0.000012  -0.000002
    28  H   -0.000251   0.000023   0.000071   0.000006   0.000004  -0.000004
              19         20         21         22         23         24
     1  C   -0.003607   0.000597  -0.000053  -0.000041   0.000077  -0.063074
     2  H    0.001046   0.000160  -0.000052   0.000014  -0.000076  -0.000807
     3  H    0.000615  -0.000016  -0.000012   0.000000  -0.000001  -0.000607
     4  C    0.000006  -0.000017  -0.000027   0.000001  -0.000002   0.006131
     5  C   -0.000002  -0.000000  -0.000000  -0.000000   0.000000  -0.000158
     6  H    0.000000  -0.000000   0.000000   0.000000   0.000000  -0.000086
     7  H    0.000000  -0.000000   0.000000   0.000000  -0.000000   0.000003
     8  H    0.000000  -0.000000  -0.000000   0.000000  -0.000000   0.000001
     9  C    0.000001   0.000010  -0.000032   0.000000   0.000000   0.000070
    10  H    0.000000  -0.000000   0.000000   0.000000  -0.000000   0.000002
    11  C    0.000007  -0.000097   0.000040   0.000002  -0.000003  -0.000032
    12  H    0.000000  -0.000004   0.000042  -0.000000   0.000000  -0.000004
    13  H   -0.000013   0.000009   0.000571  -0.000006   0.000034   0.000003
    14  H   -0.000000   0.000002  -0.000008   0.000000  -0.000000   0.000002
    15  C    0.352279  -0.065368   0.003677  -0.001684  -0.003429  -0.044864
    16  H   -0.040391   0.003695  -0.000108  -0.000079   0.000010  -0.002386
    17  H   -0.045776  -0.001105  -0.000023   0.002553  -0.000507  -0.001136
    18  H   -0.044305  -0.002140  -0.000072  -0.000371   0.002847  -0.000547
    19  C    4.918255   0.348395  -0.037056  -0.043828  -0.043933   0.698168
    20  C    0.348395   4.909215   0.406150   0.398276   0.402442  -0.043322
    21  H   -0.037056   0.406150   0.568174  -0.026275  -0.030006  -0.002871
    22  H   -0.043828   0.398276  -0.026275   0.582520  -0.033102  -0.000842
    23  H   -0.043933   0.402442  -0.030006  -0.033102   0.586205   0.000448
    24  C    0.698168  -0.043322  -0.002871  -0.000842   0.000448   4.961536
    25  H   -0.036140   0.003365   0.000059  -0.000126  -0.000110   0.402014
    26  C   -0.048266  -0.007534  -0.001945   0.000188   0.000286   0.339916
    27  H    0.000914   0.000169   0.000031   0.000032  -0.000012  -0.043351
    28  H    0.000822  -0.002065  -0.001169   0.000056  -0.000043  -0.043809
              25         26         27         28
     1  C    0.000004   0.326230  -0.045136  -0.040287
     2  H    0.000213  -0.039857   0.004291  -0.002144
     3  H    0.001003  -0.044594  -0.002604   0.004202
     4  C   -0.000155  -0.057366  -0.001852  -0.001437
     5  C    0.000010  -0.000188  -0.000392   0.000317
     6  H    0.000012   0.000811  -0.000187  -0.000009
     7  H   -0.000000  -0.000097  -0.000025  -0.000010
     8  H   -0.000002   0.000027   0.000093   0.000012
     9  C   -0.000002  -0.004366   0.000514   0.001215
    10  H   -0.000000  -0.000116   0.000004  -0.000044
    11  C    0.000000   0.000690  -0.000030   0.000070
    12  H    0.000000   0.000091   0.000000  -0.000079
    13  H   -0.000001  -0.000212  -0.000008  -0.000251
    14  H    0.000000  -0.000050  -0.000000   0.000023
    15  C   -0.006748   0.003153  -0.000102   0.000071
    16  H    0.002177   0.000146  -0.000011   0.000006
    17  H    0.000150  -0.000124   0.000012   0.000004
    18  H    0.000235  -0.000086  -0.000002  -0.000004
    19  C   -0.036140  -0.048266   0.000914   0.000822
    20  C    0.003365  -0.007534   0.000169  -0.002065
    21  H    0.000059  -0.001945   0.000031  -0.001169
    22  H   -0.000126   0.000188   0.000032   0.000056
    23  H   -0.000110   0.000286  -0.000012  -0.000043
    24  C    0.402014   0.339916  -0.043351  -0.043809
    25  H    0.558523  -0.041274  -0.003486   0.003231
    26  C   -0.041274   4.982325   0.413772   0.414880
    27  H   -0.003486   0.413772   0.588515  -0.029603
    28  H    0.003231   0.414880  -0.029603   0.571209
 Mulliken charges:
               1
     1  C   -0.234011
     2  H    0.126391
     3  H    0.115675
     4  C    0.015483
     5  C   -0.339901
     6  H    0.115150
     7  H    0.116760
     8  H    0.115797
     9  C   -0.155179
    10  H    0.116518
    11  C   -0.355610
    12  H    0.118236
    13  H    0.116919
    14  H    0.121576
    15  C   -0.341760
    16  H    0.118435
    17  H    0.116059
    18  H    0.115409
    19  C    0.022809
    20  C   -0.350814
    21  H    0.120964
    22  H    0.122712
    23  H    0.118876
    24  C   -0.160396
    25  H    0.117048
    26  C   -0.236441
    27  H    0.118456
    28  H    0.124837
 Sum of Mulliken charges =  -0.00000
 Mulliken charges with hydrogens summed into heavy atoms:
               1
     1  C    0.008055
     4  C    0.015483
     5  C    0.007806
     9  C   -0.038661
    11  C    0.001122
    15  C    0.008143
    19  C    0.022809
    20  C    0.011739
    24  C   -0.043348
    26  C    0.006851
 Electronic spatial extent (au):  <R**2>=           2423.6474
 Charge=             -0.0000 electrons
 Dipole moment (field-independent basis, Debye):
    X=              0.2949    Y=              0.1262    Z=             -0.0059  Tot=              0.3208
 Quadrupole moment (field-independent basis, Debye-Ang):
   XX=            -64.5114   YY=            -63.6032   ZZ=            -67.0541
   XY=              0.6102   XZ=              0.8626   YZ=             -0.4855
 Traceless Quadrupole moment (field-independent basis, Debye-Ang):
   XX=              0.5448   YY=              1.4531   ZZ=             -1.9979
   XY=              0.6102   XZ=              0.8626   YZ=             -0.4855
 Octapole moment (field-independent basis, Debye-Ang**2):
  XXX=              1.3639  YYY=             -2.7189  ZZZ=              0.1852  XYY=             -0.5701
  XXY=              4.5367  XXZ=             -2.6517  XZZ=              1.5767  YZZ=              1.2282
  YYZ=              1.3712  XYZ=             -0.7533
 Hexadecapole moment (field-independent basis, Debye-Ang**3):
 XXXX=          -2492.2704 YYYY=           -696.1090 ZZZZ=           -174.8274 XXXY=             -2.3558
 XXXZ=             11.9412 YYYX=             -9.3612 YYYZ=             -3.0508 ZZZX=             -0.8377
 ZZZY=             -0.0653 XXYY=           -530.4604 XXZZ=           -456.3140 YYZZ=           -139.1727
 XXYZ=             -4.2396 YYXZ=              3.1963 ZZXY=              4.6976
 N-N= 5.164357587049D+02 E-N=-1.937505372624D+03  KE= 3.886260094878D+02
 No NMR shielding tensors so no spin-rotation constants.
 Leave Link  601 at Fri Sep 17 15:38:56 2021, MaxMem=   524288000 cpu:               0.4 elap:               0.7
 (Enter /opt/gaussian/g16_legacy/l701.exe)
 ... and contract with generalized density number  2.
 Compute integral first derivatives.
 Leave Link  701 at Fri Sep 17 15:38:57 2021, MaxMem=   524288000 cpu:               0.4 elap:               0.4
 (Enter /opt/gaussian/g16_legacy/l702.exe)
 L702 exits ... SP integral derivatives will be done elsewhere.
 Leave Link  702 at Fri Sep 17 15:38:57 2021, MaxMem=   524288000 cpu:               0.1 elap:               0.1
 (Enter /opt/gaussian/g16_legacy/l703.exe)
 Integral derivatives from FoFJK, PRISM(SPDF).
 Compute integral first derivatives, UseDBF=F ICtDFT=           0.
 Calling FoFJK, ICntrl=  10002127 FMM=F ISym2X=0 I1Cent= 0 IOpClX= 0 NMat=1 NMatS=1 NMatT=0.
 FoFJK:  IHMeth= 1 ICntrl=10002127 DoSepK=F KAlg= 0 I1Cent=           0 FoldK=F
 IRaf=         0 NMat=       1 IRICut=       1 DoRegI=T DoRafI=F ISym2E= 0 IDoP0=0 IntGTp=1.
 FoFCou: FMM=F IPFlag=           0 FMFlag=      100000 FMFlg1=         800
         NFxFlg=           0 DoJE=F BraDBF=F KetDBF=F FulRan=T
         wScrn=  0.000000 ICntrl=  10002127 IOpCl=  0 I1Cent=           0 NGrid=           0
         NMat0=    1 NMatS0=      1 NMatT0=    0 NMatD0=    1 NMtDS0=    0 NMtDT0=    0
 Symmetry not used in FoFCou.
 Leave Link  703 at Fri Sep 17 15:39:34 2021, MaxMem=   524288000 cpu:              37.3 elap:              37.3
 (Enter /opt/gaussian/g16_legacy/l716.exe)
 Dipole        = 9.11291897D-02 6.69019781D-02-4.77033539D-03
 ***** Axes restored to original set *****
 -------------------------------------------------------------------
 Center     Atomic                   Forces (Hartrees/Bohr)
 Number     Number              X              Y              Z
 -------------------------------------------------------------------
      1        6          -0.008083952   -0.004566665   -0.002284612
      2        1           0.000905890    0.001569653    0.004322493
      3        1           0.000321186   -0.000288891    0.003750194
      4        6          -0.004311938    0.001385574   -0.004598944
      5        6          -0.002814142   -0.000075370    0.001351665
      6        1          -0.000670274    0.001095101   -0.003113301
      7        1           0.003656547   -0.001653872   -0.000675757
      8        1           0.001532499    0.000813614    0.002931683
      9        6           0.002339733    0.002157458    0.002145929
     10        1           0.002480399    0.002453266   -0.000658347
     11        6           0.001802621   -0.002092348    0.000098418
     12        1          -0.000158604   -0.000742789   -0.003374429
     13        1          -0.002874217    0.001704384   -0.000592412
     14        1           0.001477347   -0.001970350    0.002350679
     15        6           0.000142683    0.002884951   -0.001725383
     16        1          -0.002346120   -0.003007760    0.002050589
     17        1          -0.000337233   -0.001755422   -0.002866435
     18        1           0.001997158    0.000275478    0.002892954
     19        6          -0.000628946    0.003315021   -0.004169309
     20        6          -0.004292016   -0.000700709    0.001425048
     21        1           0.002649282    0.002229980   -0.000241972
     22        1          -0.000325329   -0.002008454   -0.002368379
     23        1           0.001789235    0.001742023    0.002679463
     24        6          -0.000939052    0.002075990    0.004703691
     25        1           0.001592079   -0.003026487   -0.000185882
     26        6           0.007656956    0.000097201    0.002138433
     27        1          -0.001958935   -0.001948588   -0.002015217
     28        1          -0.000602856    0.000038011   -0.003970859
 -------------------------------------------------------------------
 Cartesian Forces:  Max     0.008083952 RMS     0.002576323
 Leave Link  716 at Fri Sep 17 15:39:34 2021, MaxMem=   524288000 cpu:               0.1 elap:               0.1
 (Enter /opt/gaussian/g16_legacy/l103.exe)

 GradGradGradGradGradGradGradGradGradGradGradGradGradGradGradGradGradGrad
 Berny optimization.
 FormGI is forming the generalized inverse of G from B-inverse, IUseBI=4.
 GSVD:  received Info=                   1 from GESDD.
 Internal  Forces:  Max     0.004892606 RMS     0.001919535
 Search for a local minimum.
 Step number   1 out of a maximum of  138
 All quantities printed in internal units (Hartrees-Bohrs-Radians)
 RMS Force = .19195D-02 SwitMx=.10000D-02 MixMth= 1
 Mixed Optimization -- RFO/linear search
 Second derivative matrix not updated -- first step.
 ITU=  0
     Eigenvalues ---    0.00343   0.00569   0.00671   0.00681   0.00693
     Eigenvalues ---    0.00714   0.00818   0.01219   0.01287   0.01569
     Eigenvalues ---    0.01641   0.02778   0.02784   0.04018   0.04138
     Eigenvalues ---    0.05349   0.05399   0.06978   0.07035   0.07090
     Eigenvalues ---    0.07092   0.07270   0.07301   0.07347   0.07505
     Eigenvalues ---    0.09277   0.09361   0.12767   0.12842   0.15999
     Eigenvalues ---    0.15999   0.16000   0.16000   0.16000   0.16000
     Eigenvalues ---    0.16000   0.16000   0.16000   0.16000   0.16000
     Eigenvalues ---    0.16000   0.16000   0.16000   0.21859   0.21866
     Eigenvalues ---    0.22000   0.22000   0.24994   0.24997   0.24998
     Eigenvalues ---    0.24999   0.29243   0.30866   0.31638   0.31709
     Eigenvalues ---    0.31803   0.31970   0.32795   0.33875   0.33967
     Eigenvalues ---    0.34062   0.34194   0.34229   0.34233   0.34241
     Eigenvalues ---    0.34243   0.34249   0.34252   0.34260   0.34271
     Eigenvalues ---    0.34297   0.34347   0.34546   0.34549   0.34797
     Eigenvalues ---    0.34856   0.55480   0.55569
 RFO step:  Lambda=-2.96226816D-03 EMin= 3.43197475D-03
 Linear search not attempted -- first point.
 Iteration  1 RMS(Cart)=  0.03969214 RMS(Int)=  0.00072300
 Iteration  2 RMS(Cart)=  0.00093490 RMS(Int)=  0.00016639
 Iteration  3 RMS(Cart)=  0.00000043 RMS(Int)=  0.00016638
 ITry= 1 IFail=0 DXMaxC= 1.70D-01 DCOld= 1.00D+10 DXMaxT= 3.00D-01 DXLimC= 3.00D+00 Rises=F
 Variable       Old X    -DE/DX   Delta X   Delta X   Delta X     New X
                                 (Linear)    (Quad)   (Total)
    R1        2.07226  -0.00332   0.00000  -0.00966  -0.00966   2.06260
    R2        2.07541  -0.00273   0.00000  -0.00800  -0.00800   2.06741
    R3        2.86270  -0.00356   0.00000  -0.01141  -0.01141   2.85129
    R4        2.89498   0.00175   0.00000   0.00591   0.00591   2.90089
    R5        2.84811  -0.00043   0.00000  -0.00133  -0.00133   2.84678
    R6        2.54708  -0.00405   0.00000  -0.00726  -0.00726   2.53982
    R7        2.06832  -0.00179   0.00000  -0.00516  -0.00516   2.06316
    R8        2.06946  -0.00367   0.00000  -0.01064  -0.01064   2.05882
    R9        2.06925  -0.00221   0.00000  -0.00639  -0.00639   2.06286
   R10        2.05910  -0.00217   0.00000  -0.00618  -0.00618   2.05292
   R11        2.82713   0.00310   0.00000   0.00937   0.00937   2.83650
   R12        2.06893  -0.00260   0.00000  -0.00752  -0.00752   2.06141
   R13        2.06414  -0.00293   0.00000  -0.00842  -0.00842   2.05572
   R14        2.06749  -0.00151   0.00000  -0.00435  -0.00435   2.06313
   R15        2.06939  -0.00393   0.00000  -0.01140  -0.01140   2.05799
   R16        2.06922  -0.00202   0.00000  -0.00585  -0.00585   2.06337
   R17        2.06911  -0.00199   0.00000  -0.00575  -0.00575   2.06336
   R18        2.84679  -0.00076   0.00000  -0.00237  -0.00237   2.84441
   R19        2.84199  -0.00049   0.00000  -0.00152  -0.00152   2.84047
   R20        2.54630  -0.00328   0.00000  -0.00587  -0.00587   2.54043
   R21        2.06419  -0.00285   0.00000  -0.00817  -0.00817   2.05601
   R22        2.06876  -0.00183   0.00000  -0.00530  -0.00530   2.06346
   R23        2.07004  -0.00264   0.00000  -0.00766  -0.00766   2.06238
   R24        2.06006  -0.00198   0.00000  -0.00565  -0.00565   2.05442
   R25        2.84507  -0.00151   0.00000  -0.00469  -0.00469   2.84037
   R26        2.07386  -0.00241   0.00000  -0.00703  -0.00703   2.06684
   R27        2.06907  -0.00274   0.00000  -0.00794  -0.00794   2.06113
    A1        1.82998   0.00207   0.00000   0.02243   0.02226   1.85224
    A2        1.93004   0.00043   0.00000   0.00933   0.00937   1.93941
    A3        1.91837  -0.00278   0.00000  -0.02021  -0.02025   1.89812
    A4        1.90262  -0.00069   0.00000  -0.00272  -0.00272   1.89991
    A5        1.92014  -0.00195   0.00000  -0.01730  -0.01734   1.90280
    A6        1.95834   0.00284   0.00000   0.00914   0.00918   1.96752
    A7        2.00833   0.00237   0.00000   0.00968   0.00911   2.01744
    A8        2.17073  -0.00489   0.00000  -0.01898  -0.01951   2.15122
    A9        2.10394   0.00254   0.00000   0.01041   0.00983   2.11377
   A10        1.92805   0.00228   0.00000   0.01218   0.01220   1.94026
   A11        1.95934  -0.00263   0.00000  -0.01314  -0.01311   1.94623
   A12        1.92479   0.00166   0.00000   0.00903   0.00905   1.93383
   A13        1.87712   0.00054   0.00000   0.00555   0.00559   1.88271
   A14        1.89481  -0.00307   0.00000  -0.02462  -0.02462   1.87020
   A15        1.87757   0.00109   0.00000   0.01017   0.01020   1.88777
   A16        2.06973  -0.00195   0.00000  -0.01344  -0.01345   2.05628
   A17        2.22509  -0.00187   0.00000  -0.00835  -0.00837   2.21671
   A18        1.98823   0.00382   0.00000   0.02196   0.02194   2.01017
   A19        1.91001   0.00238   0.00000   0.01561   0.01556   1.92557
   A20        1.98126  -0.00300   0.00000  -0.01845  -0.01836   1.96290
   A21        1.91730   0.00395   0.00000   0.02325   0.02322   1.94051
   A22        1.87259   0.00053   0.00000   0.00499   0.00506   1.87765
   A23        1.88716  -0.00309   0.00000  -0.01885  -0.01902   1.86814
   A24        1.89289  -0.00095   0.00000  -0.00764  -0.00754   1.88535
   A25        1.87879   0.00092   0.00000   0.00794   0.00798   1.88676
   A26        1.87923   0.00092   0.00000   0.00933   0.00937   1.88860
   A27        1.96065  -0.00277   0.00000  -0.01389  -0.01385   1.94680
   A28        1.89483  -0.00313   0.00000  -0.02541  -0.02540   1.86944
   A29        1.92339   0.00175   0.00000   0.00884   0.00886   1.93225
   A30        1.92494   0.00220   0.00000   0.01235   0.01237   1.93731
   A31        1.99476   0.00145   0.00000   0.00575   0.00573   2.00049
   A32        2.10577   0.00184   0.00000   0.00730   0.00728   2.11304
   A33        2.18261  -0.00328   0.00000  -0.01294  -0.01296   2.16965
   A34        1.97973  -0.00222   0.00000  -0.01023  -0.01021   1.96952
   A35        1.92159   0.00230   0.00000   0.01171   0.01173   1.93332
   A36        1.92077   0.00001   0.00000  -0.00085  -0.00083   1.91993
   A37        1.88444   0.00023   0.00000   0.00326   0.00328   1.88773
   A38        1.86376   0.00200   0.00000   0.01692   0.01694   1.88070
   A39        1.89065  -0.00240   0.00000  -0.02159  -0.02157   1.86908
   A40        2.06716  -0.00168   0.00000  -0.01185  -0.01225   2.05492
   A41        2.22713  -0.00225   0.00000  -0.00992  -0.01033   2.21680
   A42        1.98876   0.00394   0.00000   0.02256   0.02214   2.01090
   A43        1.94446   0.00331   0.00000   0.01368   0.01371   1.95817
   A44        1.92089  -0.00239   0.00000  -0.01476  -0.01496   1.90593
   A45        1.92610  -0.00264   0.00000  -0.02497  -0.02504   1.90106
   A46        1.88059   0.00060   0.00000   0.01707   0.01712   1.89771
   A47        1.94661  -0.00053   0.00000  -0.00243  -0.00238   1.94423
   A48        1.84184   0.00155   0.00000   0.01194   0.01168   1.85352
    D1       -2.64267  -0.00174   0.00000  -0.05214  -0.05192  -2.69459
    D2        0.47845  -0.00076   0.00000   0.01015   0.00992   0.48837
    D3       -0.63958   0.00059   0.00000  -0.02156  -0.02131  -0.66089
    D4        2.48155   0.00157   0.00000   0.04073   0.04053   2.52208
[...]
                 (A) (A) (A) (A) (A) (A) (A) (A) (A) (A) (A) (A)
                 (A) (A) (A) (A) (A) (A) (A) (A) (A) (A) (A) (A)
                 (A) (A) (A) (A) (A) (A) (A) (A) (A) (A) (A) (A)
                 (A) (A) (A) (A) (A) (A) (A) (A) (A) (A) (A) (A)
                 (A) (A) (A) (A) (A) (A) (A) (A) (A) (A) (A) (A)
                 (A) (A) (A) (A) (A) (A) (A) (A) (A) (A) (A) (A)
                 (A) (A) (A) (A) (A) (A) (A) (A) (A) (A) (A) (A)
                 (A) (A) (A) (A) (A) (A) (A) (A) (A) (A) (A) (A)
                 (A) (A) (A) (A) (A) (A) (A) (A) (A) (A) (A) (A)
                 (A) (A) (A) (A) (A) (A) (A) (A) (A) (A) (A) (A)
                 (A) (A) (A) (A) (A) (A) (A) (A) (A) (A) (A) (A)
                 (A) (A) (A) (A) (A) (A) (A) (A) (A) (A) (A) (A)
                 (A) (A) (A) (A) (A) (A) (A) (A) (A) (A) (A) (A)
                 (A) (A) (A) (A) (A) (A) (A) (A) (A)
 The electronic state is 1-A.
 Alpha  occ. eigenvalues --  -11.23020 -11.22460 -11.21868 -11.21729 -11.21712
 Alpha  occ. eigenvalues --  -11.21539 -11.21506 -11.21436 -11.21417 -11.21348
 Alpha  occ. eigenvalues --   -1.10821  -1.08492  -1.01823  -0.98143  -0.93838
 Alpha  occ. eigenvalues --   -0.91939  -0.86963  -0.82855  -0.70494  -0.69519
 Alpha  occ. eigenvalues --   -0.64988  -0.61512  -0.60591  -0.58878  -0.58366
 Alpha  occ. eigenvalues --   -0.56774  -0.55298  -0.54966  -0.53295  -0.52261
 Alpha  occ. eigenvalues --   -0.51859  -0.51173  -0.50832  -0.49581  -0.48519
 Alpha  occ. eigenvalues --   -0.46073  -0.44624  -0.33371  -0.31514
 Alpha virt. eigenvalues --    0.18142   0.19779   0.22152   0.24486   0.25192
 Alpha virt. eigenvalues --    0.27439   0.28535   0.28922   0.30318   0.30811
 Alpha virt. eigenvalues --    0.31477   0.32261   0.33202   0.33794   0.34383
 Alpha virt. eigenvalues --    0.35458   0.36114   0.36962   0.39185   0.40602
 Alpha virt. eigenvalues --    0.41328   0.42631   0.43685   0.44253   0.45395
 Alpha virt. eigenvalues --    0.51702   0.54378   0.61070   0.62576   0.70520
 Alpha virt. eigenvalues --    0.71073   0.72196   0.73768   0.76075   0.76177
 Alpha virt. eigenvalues --    0.76620   0.79010   0.79474   0.81070   0.82306
 Alpha virt. eigenvalues --    0.83713   0.85579   0.89117   0.91091   0.91343
 Alpha virt. eigenvalues --    0.92820   0.94745   0.97065   0.98284   0.98818
 Alpha virt. eigenvalues --    0.99710   1.00468   1.01911   1.03844   1.06577
 Alpha virt. eigenvalues --    1.08019   1.08221   1.09393   1.11664   1.12687
 Alpha virt. eigenvalues --    1.13026   1.13870   1.14856   1.15402   1.16045
 Alpha virt. eigenvalues --    1.16257   1.16619   1.18722   1.19116   1.20671
 Alpha virt. eigenvalues --    1.20953   1.23032   1.23885   1.25765   1.28153
 Alpha virt. eigenvalues --    1.34331   1.41723   1.42153   1.44890   1.46395
 Alpha virt. eigenvalues --    1.48456   1.54136   1.55360   1.57256   1.58165
 Alpha virt. eigenvalues --    1.61459   1.63397   1.66485   1.69046   1.69645
 Alpha virt. eigenvalues --    1.73917   1.82243   1.91111   1.93363   1.96231
 Alpha virt. eigenvalues --    1.98688   2.01467   2.02277   2.03942   2.08565
 Alpha virt. eigenvalues --    2.09706   2.10748   2.11744   2.13037   2.14903
 Alpha virt. eigenvalues --    2.15780   2.16940   2.19854   2.23666   2.28347
 Alpha virt. eigenvalues --    2.29590   2.30325   2.33235   2.35347   2.35688
 Alpha virt. eigenvalues --    2.35978   2.36098   2.38923   2.40264   2.41259
 Alpha virt. eigenvalues --    2.42195   2.43169   2.44154   2.45371   2.46084
 Alpha virt. eigenvalues --    2.47201   2.49167   2.49622   2.51174   2.54099
 Alpha virt. eigenvalues --    2.57315   2.58365   2.61888   2.63241   2.64107
 Alpha virt. eigenvalues --    2.67127   2.68175   2.71776   2.73352   2.73474
 Alpha virt. eigenvalues --    2.75815   2.77410   2.80796   2.82634   2.85354
 Alpha virt. eigenvalues --    2.87137   2.89441   2.92178   2.93739   2.94867
 Alpha virt. eigenvalues --    2.97869   2.99094   3.00960   3.02677   3.05807
 Alpha virt. eigenvalues --    3.06402   3.07703   3.09315   3.13762   3.17093
 Alpha virt. eigenvalues --    3.17589   3.19238   3.20046   3.21242   3.22334
 Alpha virt. eigenvalues --    3.24167   3.25050   3.26607   3.27420   3.37866
 Alpha virt. eigenvalues --    3.40355   3.46023   3.46902   3.56200   3.58183
 Alpha virt. eigenvalues --    3.59499   3.62406   3.67928   3.75494   3.78622
 Alpha virt. eigenvalues --    3.80005   3.81570   3.82569   3.83286   3.83898
 Alpha virt. eigenvalues --    3.84750   3.86481   3.87645   3.89820   3.91558
 Alpha virt. eigenvalues --    3.97645   4.59389   4.63170   4.74472   4.82572
 Alpha virt. eigenvalues --    4.88928   4.92582   4.93409   5.07840   5.10766
 Alpha virt. eigenvalues --    5.17766
          Condensed to atoms (all electrons):
               1          2          3          4          5          6
     1  C    5.004768   0.411714   0.414473   0.337355  -0.056085   0.000011
     2  H    0.411714   0.572983  -0.028296  -0.038988   0.003071  -0.000005
     3  H    0.414473  -0.028296   0.587507  -0.046308  -0.004587  -0.000489
     4  C    0.337355  -0.038988  -0.046308   4.952603   0.351934  -0.045679
     5  C   -0.056085   0.003071  -0.004587   0.351934   4.891804   0.400946
     6  H    0.000011  -0.000005  -0.000489  -0.045679   0.400946   0.596034
     7  H    0.003801  -0.000108   0.000106  -0.042765   0.407087  -0.027466
     8  H   -0.003698  -0.000034   0.002378  -0.041506   0.397495  -0.037541
     9  C   -0.047991  -0.001860   0.002531   0.697840  -0.046054  -0.001011
    10  H    0.003272   0.000031  -0.000118  -0.037842  -0.006525   0.000135
    11  C   -0.007749  -0.002811   0.000160  -0.050271   0.003364  -0.000101
    12  H    0.000310  -0.000067  -0.000013  -0.000247  -0.000095   0.000017
    13  H   -0.001745  -0.001657   0.000030  -0.000691   0.000109  -0.000003
    14  H    0.000152   0.000184   0.000017  -0.000627  -0.000106  -0.000004
    15  C   -0.000099  -0.000043  -0.000004   0.000001  -0.000000  -0.000000
    16  H   -0.000003  -0.000002   0.000003   0.000000  -0.000000  -0.000000
    17  H   -0.000005   0.000002   0.000000   0.000000  -0.000000   0.000000
    18  H    0.000024  -0.000007  -0.000002  -0.000000   0.000000   0.000000
    19  C   -0.004325   0.001388   0.000787   0.000041  -0.000003   0.000000
    20  C    0.000587   0.000200  -0.000015  -0.000018  -0.000000  -0.000000
    21  H   -0.000302  -0.000131  -0.000016  -0.000011  -0.000000   0.000000
    22  H   -0.000040   0.000022   0.000000   0.000001  -0.000000  -0.000000
    23  H    0.000130  -0.000135  -0.000002  -0.000005   0.000000   0.000000
    24  C   -0.061827  -0.000504  -0.000900   0.006443  -0.000149  -0.000111
    25  H    0.000175   0.000111   0.001011  -0.000152   0.000010   0.000015
    26  C    0.332330  -0.041801  -0.046074  -0.055544  -0.000661   0.000609
    27  H   -0.046841   0.004515  -0.001931  -0.002075  -0.000289   0.000197
    28  H   -0.042369  -0.003118   0.004477  -0.001813   0.000243  -0.000015
               7          8          9         10         11         12
     1  C    0.003801  -0.003698  -0.047991   0.003272  -0.007749   0.000310
     2  H   -0.000108  -0.000034  -0.001860   0.000031  -0.002811  -0.000067
     3  H    0.000106   0.002378   0.002531  -0.000118   0.000160  -0.000013
     4  C   -0.042765  -0.041506   0.697840  -0.037842  -0.050271  -0.000247
     5  C    0.407087   0.397495  -0.046054  -0.006525   0.003364  -0.000095
     6  H   -0.027466  -0.037541  -0.001011   0.000135  -0.000101   0.000017
     7  H    0.568858  -0.026764  -0.002890   0.002385   0.000132  -0.000006
     8  H   -0.026764   0.591921  -0.000373   0.000216  -0.000105  -0.000004
     9  C   -0.002890  -0.000373   4.938971   0.404494   0.340494  -0.041805
    10  H    0.002385   0.000216   0.404494   0.558671  -0.041279  -0.001264
    11  C    0.000132  -0.000105   0.340494  -0.041279   4.900974   0.402169
    12  H   -0.000006  -0.000004  -0.041805  -0.001264   0.402169   0.586720
    13  H    0.000005   0.000002  -0.043903   0.003299   0.409079  -0.029956
    14  H   -0.000006   0.000017  -0.041523  -0.001122   0.401144  -0.035462
    15  C    0.000000  -0.000000  -0.000000   0.000000  -0.000000  -0.000000
    16  H    0.000000  -0.000000  -0.000000   0.000000   0.000000  -0.000000
    17  H    0.000000   0.000000   0.000000   0.000000   0.000000  -0.000000
    18  H   -0.000000  -0.000000   0.000000  -0.000000  -0.000000   0.000000
    19  C    0.000000   0.000000  -0.000001   0.000000   0.000013   0.000001
    20  C   -0.000000   0.000000   0.000015  -0.000000  -0.000147  -0.000015
    21  H    0.000000  -0.000000  -0.000045   0.000000   0.000074   0.000114
    22  H    0.000000   0.000000   0.000000   0.000000   0.000003  -0.000000
    23  H   -0.000000  -0.000000   0.000000  -0.000000  -0.000009   0.000000
    24  C    0.000004   0.000004   0.000114   0.000002  -0.000031  -0.000009
    25  H   -0.000000  -0.000001  -0.000002  -0.000000   0.000000   0.000000
    26  C   -0.000109   0.000086  -0.004911  -0.000113   0.000577   0.000163
    27  H   -0.000050   0.000058   0.000760   0.000001  -0.000033  -0.000000
    28  H   -0.000005   0.000006   0.001406  -0.000046  -0.000082  -0.000140
              13         14         15         16         17         18
     1  C   -0.001745   0.000152  -0.000099  -0.000003  -0.000005   0.000024
     2  H   -0.001657   0.000184  -0.000043  -0.000002   0.000002  -0.000007
     3  H    0.000030   0.000017  -0.000004   0.000003   0.000000  -0.000002
     4  C   -0.000691  -0.000627   0.000001   0.000000   0.000000  -0.000000
     5  C    0.000109  -0.000106  -0.000000  -0.000000  -0.000000   0.000000
     6  H   -0.000003  -0.000004  -0.000000  -0.000000   0.000000   0.000000
     7  H    0.000005  -0.000006   0.000000   0.000000   0.000000  -0.000000
     8  H    0.000002   0.000017  -0.000000  -0.000000   0.000000  -0.000000
     9  C   -0.043903  -0.041523  -0.000000  -0.000000   0.000000   0.000000
    10  H    0.003299  -0.001122   0.000000   0.000000   0.000000  -0.000000
    11  C    0.409079   0.401144  -0.000000   0.000000   0.000000  -0.000000
    12  H   -0.029956  -0.035462  -0.000000  -0.000000  -0.000000   0.000000
    13  H    0.577164  -0.027132   0.000000  -0.000000  -0.000000  -0.000000
    14  H   -0.027132   0.583648   0.000000  -0.000000   0.000000  -0.000000
    15  C    0.000000   0.000000   4.900112   0.406218   0.398811   0.398238
    16  H   -0.000000  -0.000000   0.406218   0.566018  -0.026549  -0.026703
    17  H   -0.000000   0.000000   0.398811  -0.026549   0.593607  -0.037806
    18  H   -0.000000  -0.000000   0.398238  -0.026703  -0.037806   0.594542
    19  C   -0.000026  -0.000000   0.353753  -0.041639  -0.044274  -0.043899
    20  C   -0.000000   0.000004  -0.064931   0.003785  -0.001201  -0.001975
    21  H    0.000412  -0.000013   0.003725  -0.000113  -0.000031  -0.000068
    22  H   -0.000008   0.000000  -0.002223  -0.000053   0.002766  -0.000456
    23  H    0.000079  -0.000000  -0.002632  -0.000032  -0.000476   0.002756
    24  C    0.000026   0.000002  -0.044415  -0.002632  -0.001270  -0.000422
    25  H   -0.000002   0.000000  -0.006963   0.002335   0.000187   0.000182
    26  C   -0.000737  -0.000037   0.003126   0.000148  -0.000131  -0.000068
    27  H   -0.000010  -0.000000  -0.000094  -0.000010   0.000009  -0.000002
    28  H   -0.000475   0.000037   0.000051   0.000007   0.000007  -0.000005
              19         20         21         22         23         24
     1  C   -0.004325   0.000587  -0.000302  -0.000040   0.000130  -0.061827
     2  H    0.001388   0.000200  -0.000131   0.000022  -0.000135  -0.000504
     3  H    0.000787  -0.000015  -0.000016   0.000000  -0.000002  -0.000900
     4  C    0.000041  -0.000018  -0.000011   0.000001  -0.000005   0.006443
     5  C   -0.000003  -0.000000  -0.000000  -0.000000   0.000000  -0.000149
     6  H    0.000000  -0.000000   0.000000  -0.000000   0.000000  -0.000111
     7  H    0.000000  -0.000000   0.000000   0.000000  -0.000000   0.000004
     8  H    0.000000   0.000000  -0.000000   0.000000  -0.000000   0.000004
     9  C   -0.000001   0.000015  -0.000045   0.000000   0.000000   0.000114
    10  H    0.000000  -0.000000   0.000000   0.000000  -0.000000   0.000002
    11  C    0.000013  -0.000147   0.000074   0.000003  -0.000009  -0.000031
    12  H    0.000001  -0.000015   0.000114  -0.000000   0.000000  -0.000009
    13  H   -0.000026  -0.000000   0.000412  -0.000008   0.000079   0.000026
    14  H   -0.000000   0.000004  -0.000013   0.000000  -0.000000   0.000002
    15  C    0.353753  -0.064931   0.003725  -0.002223  -0.002632  -0.044415
    16  H   -0.041639   0.003785  -0.000113  -0.000053  -0.000032  -0.002632
    17  H   -0.044274  -0.001201  -0.000031   0.002766  -0.000476  -0.001270
    18  H   -0.043899  -0.001975  -0.000068  -0.000456   0.002756  -0.000422
    19  C    4.914192   0.350333  -0.037848  -0.043537  -0.043385   0.697734
    20  C    0.350333   4.907254   0.407154   0.399852   0.401208  -0.044248
    21  H   -0.037848   0.407154   0.568221  -0.026060  -0.028659  -0.003253
    22  H   -0.043537   0.399852  -0.026060   0.584669  -0.035759  -0.000365
    23  H   -0.043385   0.401208  -0.028659  -0.035759   0.587442  -0.000031
    24  C    0.697734  -0.044248  -0.003253  -0.000365  -0.000031   4.962747
    25  H   -0.038449   0.003528   0.000061  -0.000121  -0.000121   0.403391
    26  C   -0.050100  -0.008144  -0.002069   0.000117   0.000367   0.338699
    27  H    0.001583   0.000195   0.000058   0.000021  -0.000014  -0.041395
    28  H    0.000438  -0.002693  -0.001675   0.000113  -0.000076  -0.044060
              25         26         27         28
     1  C    0.000175   0.332330  -0.046841  -0.042369
     2  H    0.000111  -0.041801   0.004515  -0.003118
     3  H    0.001011  -0.046074  -0.001931   0.004477
     4  C   -0.000152  -0.055544  -0.002075  -0.001813
     5  C    0.000010  -0.000661  -0.000289   0.000243
     6  H    0.000015   0.000609   0.000197  -0.000015
     7  H   -0.000000  -0.000109  -0.000050  -0.000005
     8  H   -0.000001   0.000086   0.000058   0.000006
     9  C   -0.000002  -0.004911   0.000760   0.001406
    10  H   -0.000000  -0.000113   0.000001  -0.000046
    11  C    0.000000   0.000577  -0.000033  -0.000082
    12  H    0.000000   0.000163  -0.000000  -0.000140
    13  H   -0.000002  -0.000737  -0.000010  -0.000475
    14  H    0.000000  -0.000037  -0.000000   0.000037
    15  C   -0.006963   0.003126  -0.000094   0.000051
    16  H    0.002335   0.000148  -0.000010   0.000007
    17  H    0.000187  -0.000131   0.000009   0.000007
    18  H    0.000182  -0.000068  -0.000002  -0.000005
    19  C   -0.038449  -0.050100   0.001583   0.000438
    20  C    0.003528  -0.008144   0.000195  -0.002693
    21  H    0.000061  -0.002069   0.000058  -0.001675
    22  H   -0.000121   0.000117   0.000021   0.000113
    23  H   -0.000121   0.000367  -0.000014  -0.000076
    24  C    0.403391   0.338699  -0.041395  -0.044060
    25  H    0.557389  -0.039113  -0.003424   0.003152
    26  C   -0.039113   4.979543   0.413482   0.415850
    27  H   -0.003424   0.413482   0.585267  -0.028362
    28  H    0.003152   0.415850  -0.028362   0.575347
 Mulliken charges:
               1
     1  C   -0.236021
     2  H    0.125346
     3  H    0.115272
     4  C    0.018322
     5  C   -0.341505
     6  H    0.114461
     7  H    0.117792
     8  H    0.117844
     9  C   -0.154256
    10  H    0.115801
    11  C   -0.355567
    12  H    0.119588
    13  H    0.116140
    14  H    0.120830
    15  C   -0.342631
    16  H    0.119222
    17  H    0.116356
    18  H    0.115672
    19  C    0.027222
    20  C   -0.350727
    21  H    0.120473
    22  H    0.121058
    23  H    0.119352
    24  C   -0.163543
    25  H    0.116803
    26  C   -0.235486
    27  H    0.118380
    28  H    0.123802
 Sum of Mulliken charges =  -0.00000
 Mulliken charges with hydrogens summed into heavy atoms:
               1
     1  C    0.004596
     4  C    0.018322
     5  C    0.008593
     9  C   -0.038454
    11  C    0.000991
    15  C    0.008618
    19  C    0.027222
    20  C    0.010156
    24  C   -0.046740
    26  C    0.006696
 Electronic spatial extent (au):  <R**2>=           2384.0059
 Charge=             -0.0000 electrons
 Dipole moment (field-independent basis, Debye):
    X=              0.3027    Y=              0.1253    Z=              0.0460  Tot=              0.3308
 Quadrupole moment (field-independent basis, Debye-Ang):
   XX=            -64.3023   YY=            -63.2901   ZZ=            -67.3956
   XY=              0.7521   XZ=              1.2367   YZ=             -0.3487
 Traceless Quadrupole moment (field-independent basis, Debye-Ang):
   XX=              0.6937   YY=              1.7059   ZZ=             -2.3996
   XY=              0.7521   XZ=              1.2367   YZ=             -0.3487
 Octapole moment (field-independent basis, Debye-Ang**2):
  XXX=              2.6682  YYY=             -2.9989  ZZZ=              0.9000  XYY=             -0.6415
  XXY=              4.0909  XXZ=             -2.0918  XZZ=              1.2120  YZZ=              1.4955
  YYZ=              0.6110  XYZ=             -0.3641
 Hexadecapole moment (field-independent basis, Debye-Ang**3):
 XXXX=          -2435.7163 YYYY=           -693.4924 ZZZZ=           -166.6414 XXXY=              2.3047
 XXXZ=             14.7514 YYYX=            -11.0526 YYYZ=             -1.4214 ZZZX=              2.8119
 ZZZY=             -0.6411 XXYY=           -520.1246 XXZZ=           -449.2340 YYZZ=           -138.3648
 XXYZ=             -4.2785 YYXZ=              0.5785 ZZXY=              5.9188
 N-N= 5.190880068732D+02 E-N=-1.942888753167D+03  KE= 3.887471640406D+02
 No NMR shielding tensors so no spin-rotation constants.
 Leave Link  601 at Fri Sep 17 16:53:43 2021, MaxMem=   524288000 cpu:               0.3 elap:               0.6
 (Enter /opt/gaussian/g16_legacy/l9999.exe)
 1\1\GINC-TRUENO90\FOpt\RMP2-FC\6-31G(d,p)\C10H18\JRAMOS\17-Sep-2021\0\
 \#p opt mp2/6-31g(d,p)\\Conformer number 3936. Energy MM = 23.242 kcal
 /mol\\0,1\C,-0.7341587855,0.637133352,-0.7063438302\H,-0.5374137176,-0
 .3078239066,-1.2151293713\H,-0.5206554017,1.4258090733,-1.4335951001\C
 ,-2.1727213861,0.7393323551,-0.2656817545\C,-2.742338516,2.1313316,-0.
 2292734354\H,-2.1295197976,2.7890311722,0.3911793023\H,-3.756068865,2.
 1388507049,0.1692404312\H,-2.7638800515,2.5682992697,-1.2299833194\C,-
 2.9055840354,-0.3195761873,0.1262069716\H,-3.9255452341,-0.1340899454,
 0.4515023236\C,-2.4679829559,-1.7523057023,0.1678459828\H,-2.548739722
 9,-2.1502858421,1.1811554391\H,-1.437789997,-1.8802671656,-0.156674255
 \H,-3.1015017252,-2.373257568,-0.4684198314\C,3.9180721709,-0.11860932
 6,-0.5476060146\H,4.1218497845,0.9078635408,-0.8485820391\H,4.64644841
 08,-0.4027330841,0.2153069418\H,4.0910681284,-0.768928453,-1.408051017
 7\C,2.5143365735,-0.2746756625,-0.031254466\C,2.1571527158,-1.66760046
 35,0.4081134075\H,1.1277091944,-1.7550843259,0.7462498988\H,2.81197268
 51,-1.993395206,1.2194367094\H,2.3018072605,-2.3702567223,-0.415406284
 9\C,1.6755177685,0.7772015177,0.0207374612\H,2.045236119,1.7307280192,
 -0.3479471936\C,0.2460358453,0.7690668438,0.4750510137\H,0.0318420401,
 1.6964407016,1.0129548102\H,0.0545514949,-0.0422985897,1.1783672201\\V
 ersion=EM64L-G16RevA.03\State=1-A\HF=-389.1567534\MP2=-390.5738646\RMS
 D=5.141e-09\RMSF=3.185e-06\Dipole=0.0830483,-0.0812957,-0.0030751\PG=C
 01 [X(C10H18)]\\@


 I take a simple view of life: keep your eyes open and get on with it.
 -- Laurence Olivier
 Job cpu time:       0 days  1 hours 20 minutes 31.1 seconds.
 Elapsed time:       0 days  1 hours 20 minutes 42.3 seconds.
 File lengths (MBytes):  RWF=     32 Int=      0 D2E=      0 Chk=      7 Scr=      1
 Normal termination of Gaussian 16 at Fri Sep 17 16:53:44 2021.
