 Entering Gaussian System, Link 0=/opt/gaussian/g16_legacy/g16
 Input=01-IsoP_1831_gaussian.com
 Output=01-IsoP_1831_gaussian.log
 Initial command:
 /opt/gaussian/g16_legacy/l1.exe "/scratch-local/jramos/2661338/Gau-25085.inp" -scrdir="/scratch-local/jramos/2661338/"
 Entering Link 1 = /opt/gaussian/g16_legacy/l1.exe PID=     25097.
  
 Copyright (c) 1988,1990,1992,1993,1995,1998,2003,2009,2016,
            Gaussian, Inc.  All Rights Reserved.
  
 This is part of the Gaussian(R) 16 program.  It is based on
 the Gaussian(R) 09 system (copyright 2009, Gaussian, Inc.),
 the Gaussian(R) 03 system (copyright 2003, Gaussian, Inc.),
 the Gaussian(R) 98 system (copyright 1998, Gaussian, Inc.),
 the Gaussian(R) 94 system (copyright 1995, Gaussian, Inc.),
 the Gaussian 92(TM) system (copyright 1992, Gaussian, Inc.),
 the Gaussian 90(TM) system (copyright 1990, Gaussian, Inc.),
 the Gaussian 88(TM) system (copyright 1988, Gaussian, Inc.),
 the Gaussian 86(TM) system (copyright 1986, Carnegie Mellon
 University), and the Gaussian 82(TM) system (copyright 1983,
 Carnegie Mellon University). Gaussian is a federally registered
 trademark of Gaussian, Inc.
  
 This software contains proprietary and confidential information,
 including trade secrets, belonging to Gaussian, Inc.
  
 This software is provided under written license and may be
 used, copied, transmitted, or stored only in accord with that
 written license.
  
 The following legend is applicable only to US Government
 contracts under FAR:
  
                    RESTRICTED RIGHTS LEGEND
  
 Use, reproduction and disclosure by the US Government is
 subject to restrictions as set forth in subparagraphs (a)
 and (c) of the Commercial Computer Software - Restricted
 Rights clause in FAR 52.227-19.
  
 Gaussian, Inc.
 340 Quinnipiac St., Bldg. 40, Wallingford CT 06492
  
  
 ---------------------------------------------------------------
 Warning -- This program may not be used in any manner that
 competes with the business of Gaussian, Inc. or will provide
 assistance to any competitor of Gaussian, Inc.  The licensee
 of this program is prohibited from giving any competitor of
 Gaussian, Inc. access to this program.  By using this program,
 the user acknowledges that Gaussian, Inc. is engaged in the
 business of creating and licensing software in the field of
 computational chemistry and represents and warrants to the
 licensee that it is not a competitor of Gaussian, Inc. and that
 it will not use this program in any manner prohibited above.
 ---------------------------------------------------------------
  

 Cite this work as:
 Gaussian 16, Revision A.03,
 M. J. Frisch, G. W. Trucks, H. B. Schlegel, G. E. Scuseria, 
 M. A. Robb, J. R. Cheeseman, G. Scalmani, V. Barone, 
 G. A. Petersson, H. Nakatsuji, X. Li, M. Caricato, A. V. Marenich, 
 J. Bloino, B. G. Janesko, R. Gomperts, B. Mennucci, H. P. Hratchian, 
 J. V. Ortiz, A. F. Izmaylov, J. L. Sonnenberg, D. Williams-Young, 
 F. Ding, F. Lipparini, F. Egidi, J. Goings, B. Peng, A. Petrone, 
 T. Henderson, D. Ranasinghe, V. G. Zakrzewski, J. Gao, N. Rega, 
 G. Zheng, W. Liang, M. Hada, M. Ehara, K. Toyota, R. Fukuda, 
 J. Hasegawa, M. Ishida, T. Nakajima, Y. Honda, O. Kitao, H. Nakai, 
 T. Vreven, K. Throssell, J. A. Montgomery, Jr., J. E. Peralta, 
 F. Ogliaro, M. J. Bearpark, J. J. Heyd, E. N. Brothers, K. N. Kudin, 
 V. N. Staroverov, T. A. Keith, R. Kobayashi, J. Normand, 
 K. Raghavachari, A. P. Rendell, J. C. Burant, S. S. Iyengar, 
 J. Tomasi, M. Cossi, J. M. Millam, M. Klene, C. Adamo, R. Cammi, 
 J. W. Ochterski, R. L. Martin, K. Morokuma, O. Farkas, 
 J. B. Foresman, and D. J. Fox, Gaussian, Inc., Wallingford CT, 2016.
 
 ******************************************
 Gaussian 16:  EM64L-G16RevA.03 25-Dec-2016
                17-Sep-2021 
 ******************************************
 %chk=01-IsoP_1831_gaussian.chk
 %nproc=1
 Will use up to    1 processors via shared memory.
 %mem=4000Mb
 ---------------------
 #p opt mp2/6-31g(d,p)
 ---------------------
 1/18=20,19=15,38=1/1,3;
 2/9=110,12=2,17=6,18=5,40=1/2;
 3/5=1,6=6,7=101,11=9,25=1,30=1,71=1/1,2,3;
 4//1;
 5/5=2,38=5/2;
 8/6=4,10=2/1;
 9/15=2,16=-3/6;
 10/5=1/2;
 6/7=2,8=2,9=2,10=2/1;
 7/12=2/1,2,3,16;
 1/18=20,19=15/3(2);
 2/9=110/2;
 99//99;
 2/9=110/2;
 3/5=1,6=6,7=101,11=9,25=1,30=1,71=1/1,2,3;
 4/5=5,16=3,69=1/1;
 5/5=2,38=5/2;
 8/6=4,10=2/1;
 9/15=2,16=-3/6;
 10/5=1/2;
 7/12=2/1,2,3,16;
 1/18=20,19=15/3(-8);
 2/9=110/2;
 6/7=2,8=2,9=2,10=2/1;
 99//99;
 Leave Link    1 at Fri Sep 17 13:32:35 2021, MaxMem=   524288000 cpu:               0.0 elap:               0.2
 (Enter /opt/gaussian/g16_legacy/l101.exe)
 --------------------------------------------------
 Conformer number 1831. Energy MM = 23.242 kcal/mol
 --------------------------------------------------
 Symbolic Z-matrix:
 Charge =  0 Multiplicity = 1
 C                    -0.8644    0.2625    0.7952 
 H                    -0.8665    1.0525    0.0347 
 H                    -0.8663    0.7961    1.7552 
 C                    -2.1214   -0.5769    0.6947 
 C                    -2.5767   -1.2023    1.9882 
 H                    -3.4928   -1.7898    1.865 
 H                    -1.8057   -1.872     2.3818 
 H                    -2.779    -0.4268    2.7342 
 C                    -2.8262   -0.7589   -0.4397 
 H                    -3.7312   -1.3644   -0.3997 
 C                    -2.5056   -0.2366   -1.8045 
 H                    -3.2618    0.4927   -2.1102 
 H                    -2.5189   -1.0626   -2.523 
 H                    -1.523     0.2356   -1.8707 
 C                     3.6806    1.5019    0.0803 
 H                     3.6139    2.4744   -0.4182 
 H                     3.8091    1.6859    1.1522 
 H                     4.5781    0.9872   -0.2781 
 C                     2.4548    0.6778   -0.2161 
 C                     2.2406    0.391    -1.6768 
 H                     1.2835   -0.0908   -1.889 
 H                     2.2587    1.3246   -2.2495 
 H                     3.0368   -0.2593   -2.0532 
 C                     1.645     0.2682    0.7799 
 H                     1.8935    0.5546    1.802 
 C                     0.4075   -0.5817    0.6671 
 H                     0.3945   -1.1504   -0.2685 
 H                     0.4431   -1.3324    1.4668 
 
 ITRead=  0  0  0  0  0  0  0  0  0  0  0  0  0  0  0  0  0  0  0  0
 ITRead=  0  0  0  0  0  0  0  0
 MicOpt= -1 -1 -1 -1 -1 -1 -1 -1 -1 -1 -1 -1 -1 -1 -1 -1 -1 -1 -1 -1
 MicOpt= -1 -1 -1 -1 -1 -1 -1 -1
 NAtoms=     28 NQM=       28 NQMF=       0 NMMI=      0 NMMIF=      0
                NMic=       0 NMicF=      0.
                    Isotopes and Nuclear Properties:
 (Nuclear quadrupole moments (NQMom) in fm**2, nuclear magnetic moments (NMagM)
  in nuclear magnetons)

  Atom         1           2           3           4           5           6           7           8           9          10
 IAtWgt=          12           1           1          12          12           1           1           1          12           1
 AtmWgt=  12.0000000   1.0078250   1.0078250  12.0000000  12.0000000   1.0078250   1.0078250   1.0078250  12.0000000   1.0078250
 NucSpn=           0           1           1           0           0           1           1           1           0           1
 AtZEff=  -0.0000000  -0.0000000  -0.0000000  -0.0000000  -0.0000000  -0.0000000  -0.0000000  -0.0000000  -0.0000000  -0.0000000
 NQMom=    0.0000000   0.0000000   0.0000000   0.0000000   0.0000000   0.0000000   0.0000000   0.0000000   0.0000000   0.0000000
 NMagM=    0.0000000   2.7928460   2.7928460   0.0000000   0.0000000   2.7928460   2.7928460   2.7928460   0.0000000   2.7928460
 AtZNuc=   6.0000000   1.0000000   1.0000000   6.0000000   6.0000000   1.0000000   1.0000000   1.0000000   6.0000000   1.0000000

  Atom        11          12          13          14          15          16          17          18          19          20
 IAtWgt=          12           1           1           1          12           1           1           1          12          12
 AtmWgt=  12.0000000   1.0078250   1.0078250   1.0078250  12.0000000   1.0078250   1.0078250   1.0078250  12.0000000  12.0000000
 NucSpn=           0           1           1           1           0           1           1           1           0           0
 AtZEff=  -0.0000000  -0.0000000  -0.0000000  -0.0000000  -0.0000000  -0.0000000  -0.0000000  -0.0000000  -0.0000000  -0.0000000
 NQMom=    0.0000000   0.0000000   0.0000000   0.0000000   0.0000000   0.0000000   0.0000000   0.0000000   0.0000000   0.0000000
 NMagM=    0.0000000   2.7928460   2.7928460   2.7928460   0.0000000   2.7928460   2.7928460   2.7928460   0.0000000   0.0000000
 AtZNuc=   6.0000000   1.0000000   1.0000000   1.0000000   6.0000000   1.0000000   1.0000000   1.0000000   6.0000000   6.0000000

  Atom        21          22          23          24          25          26          27          28
 IAtWgt=           1           1           1          12           1          12           1           1
 AtmWgt=   1.0078250   1.0078250   1.0078250  12.0000000   1.0078250  12.0000000   1.0078250   1.0078250
 NucSpn=           1           1           1           0           1           0           1           1
 AtZEff=  -0.0000000  -0.0000000  -0.0000000  -0.0000000  -0.0000000  -0.0000000  -0.0000000  -0.0000000
 NQMom=    0.0000000   0.0000000   0.0000000   0.0000000   0.0000000   0.0000000   0.0000000   0.0000000
 NMagM=    2.7928460   2.7928460   2.7928460   0.0000000   2.7928460   0.0000000   2.7928460   2.7928460
 AtZNuc=   1.0000000   1.0000000   1.0000000   6.0000000   1.0000000   6.0000000   1.0000000   1.0000000
 Leave Link  101 at Fri Sep 17 13:32:36 2021, MaxMem=   524288000 cpu:               0.3 elap:               0.3
 (Enter /opt/gaussian/g16_legacy/l103.exe)

 GradGradGradGradGradGradGradGradGradGradGradGradGradGradGradGradGradGrad
 Berny optimization.
 Initialization pass.
                           ----------------------------
                           !    Initial Parameters    !
                           ! (Angstroms and Degrees)  !
 --------------------------                            --------------------------
 ! Name  Definition              Value          Derivative Info.                !
 --------------------------------------------------------------------------------
 ! R1    R(1,2)                  1.0966         estimate D2E/DX2                !
 ! R2    R(1,3)                  1.0983         estimate D2E/DX2                !
 ! R3    R(1,4)                  1.5148         estimate D2E/DX2                !
 ! R4    R(1,26)                 1.5319         estimate D2E/DX2                !
 ! R5    R(4,5)                  1.5072         estimate D2E/DX2                !
 ! R6    R(4,9)                  1.3479         estimate D2E/DX2                !
 ! R7    R(5,6)                  1.0953         estimate D2E/DX2                !
 ! R8    R(5,7)                  1.0945         estimate D2E/DX2                !
 ! R9    R(5,8)                  1.0949         estimate D2E/DX2                !
 ! R10   R(9,10)                 1.0896         estimate D2E/DX2                !
 ! R11   R(9,11)                 1.4961         estimate D2E/DX2                !
 ! R12   R(11,12)                1.0942         estimate D2E/DX2                !
 ! R13   R(11,13)                1.0948         estimate D2E/DX2                !
 ! R14   R(11,14)                1.0922         estimate D2E/DX2                !
 ! R15   R(15,16)                1.0949         estimate D2E/DX2                !
 ! R16   R(15,17)                1.0951         estimate D2E/DX2                !
 ! R17   R(15,18)                1.0949         estimate D2E/DX2                !
 ! R18   R(15,19)                1.5065         estimate D2E/DX2                !
 ! R19   R(19,20)                1.5039         estimate D2E/DX2                !
 ! R20   R(19,24)                1.3474         estimate D2E/DX2                !
 ! R21   R(20,21)                1.0923         estimate D2E/DX2                !
 ! R22   R(20,22)                1.0954         estimate D2E/DX2                !
 ! R23   R(20,23)                1.0948         estimate D2E/DX2                !
 ! R24   R(24,25)                1.0902         estimate D2E/DX2                !
 ! R25   R(24,26)                1.5055         estimate D2E/DX2                !
 ! R26   R(26,27)                1.095          estimate D2E/DX2                !
 ! R27   R(26,28)                1.0974         estimate D2E/DX2                !
 ! A1    A(2,1,3)              104.843          estimate D2E/DX2                !
 ! A2    A(2,1,4)              110.5853         estimate D2E/DX2                !
 ! A3    A(2,1,26)             109.9136         estimate D2E/DX2                !
 ! A4    A(3,1,4)              109.0115         estimate D2E/DX2                !
 ! A5    A(3,1,26)             110.014          estimate D2E/DX2                !
 ! A6    A(4,1,26)             112.2121         estimate D2E/DX2                !
 ! A7    A(1,4,5)              115.0661         estimate D2E/DX2                !
 ! A8    A(1,4,9)              124.3716         estimate D2E/DX2                !
 ! A9    A(5,4,9)              120.5519         estimate D2E/DX2                !
 ! A10   A(4,5,6)              112.2544         estimate D2E/DX2                !
 ! A11   A(4,5,7)              110.4715         estimate D2E/DX2                !
 ! A12   A(4,5,8)              110.2829         estimate D2E/DX2                !
 ! A13   A(6,5,7)              107.5449         estimate D2E/DX2                !
 ! A14   A(6,5,8)              107.5791         estimate D2E/DX2                !
 ! A15   A(7,5,8)              108.5735         estimate D2E/DX2                !
 ! A16   A(4,9,10)             118.584          estimate D2E/DX2                !
 ! A17   A(4,9,11)             127.487          estimate D2E/DX2                !
 ! A18   A(10,9,11)            113.921          estimate D2E/DX2                !
 ! A19   A(9,11,12)            109.8447         estimate D2E/DX2                !
 ! A20   A(9,11,13)            109.4315         estimate D2E/DX2                !
 ! A21   A(9,11,14)            113.5172         estimate D2E/DX2                !
 ! A22   A(12,11,13)           108.1267         estimate D2E/DX2                !
 ! A23   A(12,11,14)           108.4619         estimate D2E/DX2                !
 ! A24   A(13,11,14)           107.2974         estimate D2E/DX2                !
 ! A25   A(16,15,17)           107.6714         estimate D2E/DX2                !
 ! A26   A(16,15,18)           108.5688         estimate D2E/DX2                !
 ! A27   A(16,15,19)           110.2882         estimate D2E/DX2                !
 ! A28   A(17,15,18)           107.6487         estimate D2E/DX2                !
 ! A29   A(17,15,19)           112.3307         estimate D2E/DX2                !
 ! A30   A(18,15,19)           110.2068         estimate D2E/DX2                !
 ! A31   A(15,19,20)           114.2864         estimate D2E/DX2                !
 ! A32   A(15,19,24)           120.655          estimate D2E/DX2                !
 ! A33   A(20,19,24)           125.0557         estimate D2E/DX2                !
 ! A34   A(19,20,21)           113.4274         estimate D2E/DX2                !
 ! A35   A(19,20,22)           110.0541         estimate D2E/DX2                !
 ! A36   A(19,20,23)           110.0983         estimate D2E/DX2                !
 ! A37   A(21,20,22)           106.7881         estimate D2E/DX2                !
 ! A38   A(21,20,23)           107.9657         estimate D2E/DX2                !
 ! A39   A(22,20,23)           108.3303         estimate D2E/DX2                !
 ! A40   A(19,24,25)           118.436          estimate D2E/DX2                !
 ! A41   A(19,24,26)           127.6073         estimate D2E/DX2                !
 ! A42   A(25,24,26)           113.9495         estimate D2E/DX2                !
 ! A43   A(1,26,24)            111.4142         estimate D2E/DX2                !
 ! A44   A(1,26,27)            110.3532         estimate D2E/DX2                !
 ! A45   A(1,26,28)            110.0574         estimate D2E/DX2                !
 ! A46   A(24,26,27)           111.5302         estimate D2E/DX2                !
 ! A47   A(24,26,28)           107.7529         estimate D2E/DX2                !
 ! A48   A(27,26,28)           105.5305         estimate D2E/DX2                !
 ! D1    D(2,1,4,5)           -151.4131         estimate D2E/DX2                !
 ! D2    D(2,1,4,9)             27.4149         estimate D2E/DX2                !
 ! D3    D(3,1,4,5)            -36.6518         estimate D2E/DX2                !
 ! D4    D(3,1,4,9)            142.1762         estimate D2E/DX2                !
 ! D5    D(26,1,4,5)            85.469          estimate D2E/DX2                !
 ! D6    D(26,1,4,9)           -95.703          estimate D2E/DX2                !
 ! D7    D(2,1,26,24)           56.9371         estimate D2E/DX2                !
 ! D8    D(2,1,26,27)          -67.5307         estimate D2E/DX2                !
 ! D9    D(2,1,26,28)          176.3997         estimate D2E/DX2                !
 ! D10   D(3,1,26,24)          -58.0193         estimate D2E/DX2                !
 ! D11   D(3,1,26,27)          177.513          estimate D2E/DX2                !
 ! D12   D(3,1,26,28)           61.4434         estimate D2E/DX2                !
 ! D13   D(4,1,26,24)         -179.5679         estimate D2E/DX2                !
 ! D14   D(4,1,26,27)           55.9644         estimate D2E/DX2                !
 ! D15   D(4,1,26,28)          -60.1052         estimate D2E/DX2                !
 ! D16   D(1,4,5,6)            179.4434         estimate D2E/DX2                !
 ! D17   D(1,4,5,7)            -60.528          estimate D2E/DX2                !
 ! D18   D(1,4,5,8)             59.5009         estimate D2E/DX2                !
 ! D19   D(9,4,5,6)              0.5667         estimate D2E/DX2                !
 ! D20   D(9,4,5,7)            120.5953         estimate D2E/DX2                !
 ! D21   D(9,4,5,8)           -119.3758         estimate D2E/DX2                !
 ! D22   D(1,4,9,10)          -178.6071         estimate D2E/DX2                !
 ! D23   D(1,4,9,11)             2.4878         estimate D2E/DX2                !
 ! D24   D(5,4,9,10)             0.1602         estimate D2E/DX2                !
 ! D25   D(5,4,9,11)          -178.745          estimate D2E/DX2                !
 ! D26   D(4,9,11,12)         -113.6949         estimate D2E/DX2                !
 ! D27   D(4,9,11,13)          127.7466         estimate D2E/DX2                !
 ! D28   D(4,9,11,14)            7.9207         estimate D2E/DX2                !
 ! D29   D(10,9,11,12)          67.3569         estimate D2E/DX2                !
 ! D30   D(10,9,11,13)         -51.2016         estimate D2E/DX2                !
 ! D31   D(10,9,11,14)        -171.0276         estimate D2E/DX2                !
 ! D32   D(16,15,19,20)         60.2587         estimate D2E/DX2                !
 ! D33   D(16,15,19,24)       -119.1612         estimate D2E/DX2                !
 ! D34   D(17,15,19,20)       -179.6273         estimate D2E/DX2                !
 ! D35   D(17,15,19,24)          0.9528         estimate D2E/DX2                !
 ! D36   D(18,15,19,20)        -59.5982         estimate D2E/DX2                !
 ! D37   D(18,15,19,24)        120.9819         estimate D2E/DX2                !
 ! D38   D(15,19,20,21)       -172.3425         estimate D2E/DX2                !
 ! D39   D(15,19,20,22)        -52.7865         estimate D2E/DX2                !
 ! D40   D(15,19,20,23)         66.5591         estimate D2E/DX2                !
 ! D41   D(24,19,20,21)          7.0479         estimate D2E/DX2                !
 ! D42   D(24,19,20,22)        126.6039         estimate D2E/DX2                !
 ! D43   D(24,19,20,23)       -114.0505         estimate D2E/DX2                !
 ! D44   D(15,19,24,25)          0.5253         estimate D2E/DX2                !
 ! D45   D(15,19,24,26)       -178.4314         estimate D2E/DX2                !
 ! D46   D(20,19,24,25)       -178.8287         estimate D2E/DX2                !
 ! D47   D(20,19,24,26)          2.2146         estimate D2E/DX2                !
 ! D48   D(19,24,26,1)        -103.3642         estimate D2E/DX2                !
 ! D49   D(19,24,26,27)         20.4391         estimate D2E/DX2                !
 ! D50   D(19,24,26,28)        135.8138         estimate D2E/DX2                !
 ! D51   D(25,24,26,1)          77.6396         estimate D2E/DX2                !
 ! D52   D(25,24,26,27)       -158.557          estimate D2E/DX2                !
 ! D53   D(25,24,26,28)        -43.1824         estimate D2E/DX2                !
 --------------------------------------------------------------------------------
 Trust Radius=3.00D-01 FncErr=1.00D-07 GrdErr=1.00D-07 EigMax=2.50D+02 EigMin=1.00D-04
 Number of steps in this run=    138 maximum allowed number of steps=    168.
 GradGradGradGradGradGradGradGradGradGradGradGradGradGradGradGradGradGrad

 Leave Link  103 at Fri Sep 17 13:32:36 2021, MaxMem=   524288000 cpu:               0.1 elap:               0.0
 (Enter /opt/gaussian/g16_legacy/l202.exe)
                          Input orientation:                          
 ---------------------------------------------------------------------
 Center     Atomic      Atomic             Coordinates (Angstroms)
 Number     Number       Type             X           Y           Z
 ---------------------------------------------------------------------
      1          6           0       -0.864400    0.262500    0.795200
      2          1           0       -0.866500    1.052500    0.034700
      3          1           0       -0.866300    0.796100    1.755200
      4          6           0       -2.121400   -0.576900    0.694700
      5          6           0       -2.576700   -1.202300    1.988200
      6          1           0       -3.492800   -1.789800    1.865000
      7          1           0       -1.805700   -1.872000    2.381800
      8          1           0       -2.779000   -0.426800    2.734200
      9          6           0       -2.826200   -0.758900   -0.439700
     10          1           0       -3.731200   -1.364400   -0.399700
     11          6           0       -2.505600   -0.236600   -1.804500
     12          1           0       -3.261800    0.492700   -2.110200
     13          1           0       -2.518900   -1.062600   -2.523000
     14          1           0       -1.523000    0.235600   -1.870700
     15          6           0        3.680600    1.501900    0.080300
     16          1           0        3.613900    2.474400   -0.418200
     17          1           0        3.809100    1.685900    1.152200
     18          1           0        4.578100    0.987200   -0.278100
     19          6           0        2.454800    0.677800   -0.216100
     20          6           0        2.240600    0.391000   -1.676800
     21          1           0        1.283500   -0.090800   -1.889000
     22          1           0        2.258700    1.324600   -2.249500
     23          1           0        3.036800   -0.259300   -2.053200
     24          6           0        1.645000    0.268200    0.779900
     25          1           0        1.893500    0.554600    1.802000
     26          6           0        0.407500   -0.581700    0.667100
     27          1           0        0.394500   -1.150400   -0.268500
     28          1           0        0.443100   -1.332400    1.466800
 ---------------------------------------------------------------------
                    Distance matrix (angstroms):
                    1          2          3          4          5
     1  C    0.000000
     2  H    1.096569   0.000000
     3  H    1.098332   1.739500   0.000000
     4  C    1.514840   2.159935   2.141277   0.000000
     5  C    2.549678   3.438760   2.640712   1.507171   0.000000
     6  H    3.502127   4.280902   3.687470   2.172894   1.095251
     7  H    2.821247   3.865705   2.897215   2.150176   1.094468
     8  H    2.810791   3.623987   2.472316   2.148145   1.094916
     9  C    2.533159   2.710470   3.328186   1.347861   2.480635
    10  H    3.506156   3.773144   4.185571   2.099839   2.657294
    11  C    3.114655   2.780483   4.052806   2.551355   3.914359
    12  H    3.773840   3.263653   4.557608   3.211233   4.487680
    13  H    3.937475   3.707547   4.948621   3.278339   4.513733
    14  H    2.746179   2.174596   3.727273   2.756722   4.250759
    15  C    4.764894   4.569481   4.896707   6.193715   7.078600
    16  H    5.140040   4.722383   5.254765   6.591103   7.591601
    17  H    4.898481   4.848839   4.797366   6.363992   7.058260
    18  H    5.594459   5.453969   5.814836   6.948097   7.818004
    19  C    3.494609   3.351766   3.863900   4.831711   5.806006
    20  C    3.970935   3.608446   4.647102   5.058447   6.259170
    21  H    3.455897   3.103265   4.323011   4.301760   5.582943
    22  H    4.489099   3.880526   5.107109   5.609750   6.908286
    23  H    4.858500   4.616914   5.554455   5.853106   6.980942
    24  C    2.509453   2.734608   2.745272   3.860987   4.630887
    25  H    2.950420   3.314944   2.770742   4.315765   4.806668
    26  C    1.531931   2.166475   2.169069   2.529055   3.322032
    27  H    2.170846   2.556329   3.077960   2.754344   3.731410
    28  H    2.168942   3.074689   2.515594   2.782729   3.067242
                    6          7          8          9         10
     6  H    0.000000
     7  H    1.766393   0.000000
     8  H    1.767141   1.777667   0.000000
     9  C    2.611274   3.200199   3.191576   0.000000
    10  H    2.316607   3.420811   3.406921   1.089612   0.000000
    11  C    4.105146   4.548571   4.550903   1.496082   2.178874
    12  H    4.589704   5.281108   4.954471   2.132327   2.568067
    13  H    4.553224   5.022036   5.301891   2.127629   2.463566
    14  H    4.683782   4.754540   4.818860   2.176033   3.098385
    15  C    8.091855   6.839561   7.244964   6.907971   7.961209
    16  H    8.596603   7.490211   7.695697   7.206218   8.287775
    17  H    8.118271   6.759922   7.097132   7.248338   8.280631
    18  H    8.800229   7.483515   8.074668   7.609115   8.636508
    19  C    6.767124   5.603787   6.108770   5.477505   6.516969
    20  C    7.083227   6.161651   6.732169   5.340894   6.354117
    21  H    6.308103   5.563772   6.163666   4.408680   5.383984
    22  H    7.727118   6.941652   7.299527   5.785547   6.821392
    23  H    7.767264   6.761644   7.534639   6.101455   7.054157
    24  C    5.640017   4.365074   4.886112   4.746998   5.741112
    25  H    5.874726   4.461909   4.864607   5.387585   6.337767
    26  C    4.255210   3.082746   3.801405   3.422458   4.345057
    27  H    4.480151   3.519329   4.428420   3.248921   4.133329
    28  H    3.982347   2.487065   3.578874   3.827789   4.572705
                   11         12         13         14         15
    11  C    0.000000
    12  H    1.094152   0.000000
    13  H    1.094849   1.772361   0.000000
    14  H    1.092180   1.773946   1.761430   0.000000
    15  C    6.696561   7.349401   7.196362   5.699769   0.000000
    16  H    6.835176   7.352908   7.385918   5.788758   1.094855
    17  H    7.232808   7.878109   7.816964   6.298618   1.095143
    18  H    7.348904   8.066297   7.720665   6.350173   1.094931
    19  C    5.288167   6.025064   5.752258   4.330835   1.506512
    20  C    4.789217   5.520379   5.047955   3.771794   2.528853
    21  H    3.792845   4.587936   3.975500   2.825476   3.487252
    22  H    5.033282   5.584566   5.347802   3.953564   2.735179
    23  H    5.548023   6.343588   5.633099   4.590208   2.840445
    24  C    4.915427   5.699102   5.478890   4.130734   2.480952
    25  H    5.743250   6.471959   6.386723   5.026227   2.656192
    26  C    3.835890   4.725621   4.355665   3.291692   3.924144
    27  H    3.406597   4.411368   3.684885   2.857420   4.237312
    28  H    4.538393   5.463717   4.976418   4.178885   4.520735
                   16         17         18         19         20
    16  H    0.000000
    17  H    1.768047   0.000000
    18  H    1.777941   1.767852   0.000000
    19  C    2.147587   2.173163   2.146619   0.000000
    20  C    2.794742   3.484279   2.788498   1.503922   0.000000
    21  H    3.764873   4.334076   3.822496   2.182037   1.092337
    22  H    2.551914   3.755774   3.062658   2.142783   1.095409
    23  H    3.237188   3.828164   2.660892   2.142852   1.094761
    24  C    3.190506   2.613773   3.199906   1.347429   2.530848
    25  H    3.402161   2.317672   3.423600   2.098324   3.499899
    26  C    4.560551   4.116821   4.555080   2.560824   3.130538
    27  H    4.850373   4.660738   4.698078   2.754977   2.786989
    28  H    5.300842   4.532004   5.052073   3.304541   4.010403
                   21         22         23         24         25
    21  H    0.000000
    22  H    1.756227   0.000000
    23  H    1.769015   1.775588   0.000000
    24  C    2.717092   3.266477   3.200284   0.000000
    25  H    3.796330   4.140160   4.102699   1.090168   0.000000
    26  C    2.746271   3.945564   3.796998   1.505477   2.188006
    27  H    2.130515   3.677666   3.310734   2.162249   3.072620
    28  H    3.675491   4.915988   4.502135   2.116203   2.403495
                   26         27         28
    26  C    0.000000
    27  H    1.094959   0.000000
    28  H    1.097423   1.745495   0.000000
 Stoichiometry    C10H18
 Framework group  C1[X(C10H18)]
 Deg. of freedom    78
 Full point group                 C1      NOp   1
 Largest Abelian subgroup         C1      NOp   1
 Largest concise Abelian subgroup C1      NOp   1
                         Standard orientation:                         
 ---------------------------------------------------------------------
 Center     Atomic      Atomic             Coordinates (Angstroms)
 Number     Number       Type             X           Y           Z
 ---------------------------------------------------------------------
      1          6           0       -0.793768   -0.586524    0.589116
      2          1           0       -0.484616    0.235259    1.246051
      3          1           0       -0.746003   -1.484293    1.220036
      4          6           0       -2.220923   -0.386978    0.122050
      5          6           0       -2.975638   -1.655028   -0.184576
      6          1           0       -4.003295   -1.458146   -0.508200
      7          1           0       -2.478730   -2.212219   -0.984876
      8          1           0       -3.025259   -2.291694    0.704826
      9          6           0       -2.820243    0.813964   -0.001586
     10          1           0       -3.860328    0.846752   -0.324701
     11          6           0       -2.215665    2.161881    0.234773
     12          1           0       -2.690854    2.635741    1.098962
     13          1           0       -2.388695    2.797150   -0.639977
     14          1           0       -1.137436    2.131919    0.406184
     15          6           0        3.965110   -0.407932    0.429715
     16          1           0        4.237003    0.181187    1.311600
     17          1           0        4.023688   -1.466083    0.705802
     18          1           0        4.709071   -0.227431   -0.353109
     19          6           0        2.593399   -0.018243   -0.056216
     20          6           0        2.465974    1.425941   -0.456061
     21          1           0        1.439562    1.725924   -0.678973
     22          1           0        2.815367    2.072766    0.356012
     23          1           0        3.076365    1.626116   -1.342545
     24          6           0        1.596288   -0.923579   -0.097458
     25          1           0        1.804016   -1.940201    0.236898
     26          6           0        0.185985   -0.715600   -0.581455
     27          1           0        0.111248    0.157021   -1.238632
     28          1           0       -0.084220   -1.577171   -1.205171
 ---------------------------------------------------------------------
 Rotational constants (GHZ):           2.2181021           0.5802358           0.4854250
 Leave Link  202 at Fri Sep 17 13:32:36 2021, MaxMem=   524288000 cpu:               0.0 elap:               0.0
 (Enter /opt/gaussian/g16_legacy/l301.exe)
 Standard basis: 6-31G(d,p) (6D, 7F)
 Ernie: Thresh=  0.10000D-02 Tol=  0.10000D-05 Strict=F.
 There are   240 symmetry adapted cartesian basis functions of A   symmetry.
 There are   240 symmetry adapted basis functions of A   symmetry.
   240 basis functions,   406 primitive gaussians,   240 cartesian basis functions
    39 alpha electrons       39 beta electrons
       nuclear repulsion energy       516.4361699222 Hartrees.
 IExCor=    0 DFT=F Ex=HF Corr=None ExCW=0 ScaHFX=  1.000000
 ScaDFX=  1.000000  1.000000  1.000000  1.000000 ScalE2=  1.000000  1.000000
 IRadAn=      5 IRanWt=     -1 IRanGd=            0 ICorTp=0 IEmpDi=  4
 NAtoms=   28 NActive=   28 NUniq=   28 SFac= 1.00D+00 NAtFMM=   60 NAOKFM=F Big=F
 Integral buffers will be    131072 words long.
 Raffenetti 1 integral format.
 Two-electron integral symmetry is turned on.
 Leave Link  301 at Fri Sep 17 13:32:36 2021, MaxMem=   524288000 cpu:               0.1 elap:               0.1
 (Enter /opt/gaussian/g16_legacy/l302.exe)
 NPDir=0 NMtPBC=     1 NCelOv=     1 NCel=       1 NClECP=     1 NCelD=      1
         NCelK=      1 NCelE2=     1 NClLst=     1 CellRange=     0.0.
 One-electron integrals computed using PRISM.
 One-electron integral symmetry used in STVInt
 NBasis=   240 RedAO= T EigKep=  2.10D-03  NBF=   240
 NBsUse=   240 1.00D-06 EigRej= -1.00D+00 NBFU=   240
 Leave Link  302 at Fri Sep 17 13:32:36 2021, MaxMem=   524288000 cpu:               0.3 elap:               0.4
 (Enter /opt/gaussian/g16_legacy/l303.exe)
 DipDrv:  MaxL=1.
 Leave Link  303 at Fri Sep 17 13:32:37 2021, MaxMem=   524288000 cpu:               0.1 elap:               0.3
 (Enter /opt/gaussian/g16_legacy/l401.exe)
 ExpMin= 1.61D-01 ExpMax= 3.05D+03 ExpMxC= 4.57D+02 IAcc=3 IRadAn=         5 AccDes= 0.00D+00
 Harris functional with IExCor=  205 and IRadAn=       5 diagonalized for initial guess.
 HarFok:  IExCor=  205 AccDes= 0.00D+00 IRadAn=         5 IDoV= 1 UseB2=F ITyADJ=14
 ICtDFT=  3500011 ScaDFX=  1.000000  1.000000  1.000000  1.000000
 FoFCou: FMM=F IPFlag=           0 FMFlag=      100000 FMFlg1=           0
         NFxFlg=           0 DoJE=T BraDBF=F KetDBF=T FulRan=T
         wScrn=  0.000000 ICntrl=       500 IOpCl=  0 I1Cent=   200000004 NGrid=           0
         NMat0=    1 NMatS0=      1 NMatT0=    0 NMatD0=    1 NMtDS0=    0 NMtDT0=    0
 Petite list used in FoFCou.
 Harris En= -390.109897664642    
 JPrj=0 DoOrth=F DoCkMO=F.
 Leave Link  401 at Fri Sep 17 13:32:49 2021, MaxMem=   524288000 cpu:              11.1 elap:              12.2
 (Enter /opt/gaussian/g16_legacy/l502.exe)
 Keep R1 ints in memory in canonical form, NReq=425198025.
 FoFCou: FMM=F IPFlag=           0 FMFlag=           0 FMFlg1=           0
         NFxFlg=           0 DoJE=F BraDBF=F KetDBF=F FulRan=T
         wScrn=  0.000000 ICntrl=       600 IOpCl=  0 I1Cent=           0 NGrid=           0
         NMat0=    1 NMatS0=  28920 NMatT0=    0 NMatD0=    1 NMtDS0=    0 NMtDT0=    0
 Symmetry not used in FoFCou.
 Two-electron integral symmetry not used.
 Closed shell SCF:
 Using DIIS extrapolation, IDIIS=  1040.
 NGot=   524288000 LenX=   105970886 LenY=   105912845
 Requested convergence on RMS density matrix=1.00D-08 within 128 cycles.
 Requested convergence on MAX density matrix=1.00D-06.
 Requested convergence on             energy=1.00D-06.
 No special actions if energy rises.

 Cycle   1  Pass 1  IDiag  1:
 E= -388.533170157038    
 DIIS: error= 5.21D-02 at cycle   1 NSaved=   1.
 NSaved= 1 IEnMin= 1 EnMin= -388.533170157038     IErMin= 1 ErrMin= 5.21D-02
 ErrMax= 5.21D-02  0.00D+00 EMaxC= 1.00D-01 BMatC= 8.07D-01 BMatP= 8.07D-01
 IDIUse=3 WtCom= 4.79D-01 WtEn= 5.21D-01
 Coeff-Com:  0.100D+01
 Coeff-En:   0.100D+01
 Coeff:      0.100D+01
 Gap=     0.508 Goal=   None    Shift=    0.000
 GapD=    0.508 DampG=2.000 DampE=0.500 DampFc=1.0000 IDamp=-1.
 RMSDP=4.00D-03 MaxDP=1.14D-01              OVMax= 1.33D-01

 Cycle   2  Pass 1  IDiag  1:
 E= -389.073868259210     Delta-E=       -0.540698102172 Rises=F Damp=F
 DIIS: error= 1.59D-02 at cycle   2 NSaved=   2.
 NSaved= 2 IEnMin= 2 EnMin= -389.073868259210     IErMin= 2 ErrMin= 1.59D-02
 ErrMax= 1.59D-02  0.00D+00 EMaxC= 1.00D-01 BMatC= 8.66D-02 BMatP= 8.07D-01
 IDIUse=3 WtCom= 8.41D-01 WtEn= 1.59D-01
 Coeff-Com:  0.183D+00 0.817D+00
 Coeff-En:   0.000D+00 0.100D+01
 Coeff:      0.154D+00 0.846D+00
 Gap=     0.549 Goal=   None    Shift=    0.000
 RMSDP=1.63D-03 MaxDP=3.04D-02 DE=-5.41D-01 OVMax= 4.61D-02

 Cycle   3  Pass 1  IDiag  1:
 E= -389.151429758406     Delta-E=       -0.077561499196 Rises=F Damp=F
 DIIS: error= 3.43D-03 at cycle   3 NSaved=   3.
 NSaved= 3 IEnMin= 3 EnMin= -389.151429758406     IErMin= 3 ErrMin= 3.43D-03
 ErrMax= 3.43D-03  0.00D+00 EMaxC= 1.00D-01 BMatC= 3.14D-03 BMatP= 8.66D-02
 IDIUse=3 WtCom= 9.66D-01 WtEn= 3.43D-02
 Coeff-Com: -0.245D-01 0.106D+00 0.919D+00
 Coeff-En:   0.000D+00 0.000D+00 0.100D+01
 Coeff:     -0.236D-01 0.102D+00 0.921D+00
 Gap=     0.499 Goal=   None    Shift=    0.000
 RMSDP=2.59D-04 MaxDP=7.14D-03 DE=-7.76D-02 OVMax= 1.01D-02

 Cycle   4  Pass 1  IDiag  1:
 E= -389.155055320796     Delta-E=       -0.003625562390 Rises=F Damp=F
 DIIS: error= 5.31D-04 at cycle   4 NSaved=   4.
 NSaved= 4 IEnMin= 4 EnMin= -389.155055320796     IErMin= 4 ErrMin= 5.31D-04
 ErrMax= 5.31D-04  0.00D+00 EMaxC= 1.00D-01 BMatC= 9.29D-05 BMatP= 3.14D-03
 IDIUse=3 WtCom= 9.95D-01 WtEn= 5.31D-03
 Coeff-Com: -0.424D-02-0.189D-02 0.950D-01 0.911D+00
 Coeff-En:   0.000D+00 0.000D+00 0.000D+00 0.100D+01
 Coeff:     -0.422D-02-0.188D-02 0.945D-01 0.912D+00
 Gap=     0.499 Goal=   None    Shift=    0.000
 RMSDP=7.39D-05 MaxDP=1.49D-03 DE=-3.63D-03 OVMax= 3.14D-03

 Cycle   5  Pass 1  IDiag  1:
 E= -389.155179660958     Delta-E=       -0.000124340162 Rises=F Damp=F
 DIIS: error= 1.63D-04 at cycle   5 NSaved=   5.
 NSaved= 5 IEnMin= 5 EnMin= -389.155179660958     IErMin= 5 ErrMin= 1.63D-04
 ErrMax= 1.63D-04  0.00D+00 EMaxC= 1.00D-01 BMatC= 1.60D-05 BMatP= 9.29D-05
 IDIUse=3 WtCom= 9.98D-01 WtEn= 1.63D-03
 Coeff-Com:  0.241D-02-0.152D-01-0.102D+00 0.176D+00 0.939D+00
 Coeff-En:   0.000D+00 0.000D+00 0.000D+00 0.000D+00 0.100D+01
 Coeff:      0.241D-02-0.152D-01-0.102D+00 0.175D+00 0.939D+00
 Gap=     0.500 Goal=   None    Shift=    0.000
 RMSDP=3.00D-05 MaxDP=6.56D-04 DE=-1.24D-04 OVMax= 9.23D-04

 Cycle   6  Pass 1  IDiag  1:
 E= -389.155201144602     Delta-E=       -0.000021483644 Rises=F Damp=F
 DIIS: error= 3.58D-05 at cycle   6 NSaved=   6.
 NSaved= 6 IEnMin= 6 EnMin= -389.155201144602     IErMin= 6 ErrMin= 3.58D-05
 ErrMax= 3.58D-05  0.00D+00 EMaxC= 1.00D-01 BMatC= 5.50D-07 BMatP= 1.60D-05
 IDIUse=1 WtCom= 1.00D+00 WtEn= 0.00D+00
 Coeff-Com:  0.720D-03-0.335D-02-0.261D-01-0.433D-02 0.177D+00 0.856D+00
 Coeff:      0.720D-03-0.335D-02-0.261D-01-0.433D-02 0.177D+00 0.856D+00
 Gap=     0.500 Goal=   None    Shift=    0.000
 RMSDP=5.30D-06 MaxDP=1.61D-04 DE=-2.15D-05 OVMax= 3.24D-04

 Cycle   7  Pass 1  IDiag  1:
 E= -389.155201986017     Delta-E=       -0.000000841415 Rises=F Damp=F
 DIIS: error= 1.03D-05 at cycle   7 NSaved=   7.
 NSaved= 7 IEnMin= 7 EnMin= -389.155201986017     IErMin= 7 ErrMin= 1.03D-05
 ErrMax= 1.03D-05  0.00D+00 EMaxC= 1.00D-01 BMatC= 5.45D-08 BMatP= 5.50D-07
 IDIUse=1 WtCom= 1.00D+00 WtEn= 0.00D+00
 Coeff-Com: -0.494D-04 0.464D-03 0.301D-02-0.105D-01-0.468D-01 0.145D+00
 Coeff-Com:  0.909D+00
 Coeff:     -0.494D-04 0.464D-03 0.301D-02-0.105D-01-0.468D-01 0.145D+00
 Coeff:      0.909D+00
 Gap=     0.500 Goal=   None    Shift=    0.000
 RMSDP=1.71D-06 MaxDP=4.10D-05 DE=-8.41D-07 OVMax= 8.43D-05

 Cycle   8  Pass 1  IDiag  1:
 E= -389.155202075038     Delta-E=       -0.000000089020 Rises=F Damp=F
 DIIS: error= 3.51D-06 at cycle   8 NSaved=   8.
 NSaved= 8 IEnMin= 8 EnMin= -389.155202075038     IErMin= 8 ErrMin= 3.51D-06
 ErrMax= 3.51D-06  0.00D+00 EMaxC= 1.00D-01 BMatC= 5.10D-09 BMatP= 5.45D-08
 IDIUse=1 WtCom= 1.00D+00 WtEn= 0.00D+00
 Coeff-Com: -0.581D-04 0.249D-03 0.208D-02 0.315D-02-0.171D-01-0.804D-01
 Coeff-Com: -0.123D+00 0.121D+01
 Coeff:     -0.581D-04 0.249D-03 0.208D-02 0.315D-02-0.171D-01-0.804D-01
 Coeff:     -0.123D+00 0.121D+01
 Gap=     0.500 Goal=   None    Shift=    0.000
 RMSDP=7.86D-07 MaxDP=2.41D-05 DE=-8.90D-08 OVMax= 5.81D-05

 Cycle   9  Pass 1  IDiag  1:
 E= -389.155202090917     Delta-E=       -0.000000015879 Rises=F Damp=F
 DIIS: error= 1.46D-06 at cycle   9 NSaved=   9.
 NSaved= 9 IEnMin= 9 EnMin= -389.155202090917     IErMin= 9 ErrMin= 1.46D-06
 ErrMax= 1.46D-06  0.00D+00 EMaxC= 1.00D-01 BMatC= 7.39D-10 BMatP= 5.10D-09
 IDIUse=1 WtCom= 1.00D+00 WtEn= 0.00D+00
 Coeff-Com:  0.928D-05-0.690D-04-0.480D-03 0.144D-02 0.385D-02 0.711D-04
 Coeff-Com: -0.865D-01-0.120D+00 0.120D+01
 Coeff:      0.928D-05-0.690D-04-0.480D-03 0.144D-02 0.385D-02 0.711D-04
 Coeff:     -0.865D-01-0.120D+00 0.120D+01
 Gap=     0.500 Goal=   None    Shift=    0.000
 RMSDP=2.99D-07 MaxDP=1.24D-05 DE=-1.59D-08 OVMax= 2.71D-05

 Cycle  10  Pass 1  IDiag  1:
 E= -389.155202093335     Delta-E=       -0.000000002418 Rises=F Damp=F
 DIIS: error= 3.98D-07 at cycle  10 NSaved=  10.
 NSaved=10 IEnMin=10 EnMin= -389.155202093335     IErMin=10 ErrMin= 3.98D-07
 ErrMax= 3.98D-07  0.00D+00 EMaxC= 1.00D-01 BMatC= 1.22D-10 BMatP= 7.39D-10
 IDIUse=1 WtCom= 1.00D+00 WtEn= 0.00D+00
 Coeff-Com:  0.953D-05-0.465D-04-0.370D-03-0.135D-03 0.234D-02 0.142D-01
 Coeff-Com:  0.592D-02-0.211D+00 0.144D+00 0.105D+01
 Coeff:      0.953D-05-0.465D-04-0.370D-03-0.135D-03 0.234D-02 0.142D-01
 Coeff:      0.592D-02-0.211D+00 0.144D+00 0.105D+01
 Gap=     0.500 Goal=   None    Shift=    0.000
 RMSDP=1.24D-07 MaxDP=3.06D-06 DE=-2.42D-09 OVMax= 9.88D-06

 Cycle  11  Pass 1  IDiag  1:
 E= -389.155202093664     Delta-E=       -0.000000000329 Rises=F Damp=F
 DIIS: error= 1.55D-07 at cycle  11 NSaved=  11.
 NSaved=11 IEnMin=11 EnMin= -389.155202093664     IErMin=11 ErrMin= 1.55D-07
 ErrMax= 1.55D-07  0.00D+00 EMaxC= 1.00D-01 BMatC= 9.55D-12 BMatP= 1.22D-10
 IDIUse=1 WtCom= 1.00D+00 WtEn= 0.00D+00
 Coeff-Com:  0.397D-06 0.826D-06 0.905D-06-0.149D-03-0.305D-03 0.278D-02
 Coeff-Com:  0.110D-01-0.153D-01-0.107D+00 0.164D+00 0.945D+00
 Coeff:      0.397D-06 0.826D-06 0.905D-06-0.149D-03-0.305D-03 0.278D-02
 Coeff:      0.110D-01-0.153D-01-0.107D+00 0.164D+00 0.945D+00
 Gap=     0.500 Goal=   None    Shift=    0.000
 RMSDP=2.77D-08 MaxDP=1.16D-06 DE=-3.29D-10 OVMax= 2.51D-06

 Cycle  12  Pass 1  IDiag  1:
 E= -389.155202093681     Delta-E=       -0.000000000017 Rises=F Damp=F
 DIIS: error= 3.64D-08 at cycle  12 NSaved=  12.
 NSaved=12 IEnMin=12 EnMin= -389.155202093681     IErMin=12 ErrMin= 3.64D-08
 ErrMax= 3.64D-08  0.00D+00 EMaxC= 1.00D-01 BMatC= 1.17D-12 BMatP= 9.55D-12
 IDIUse=1 WtCom= 1.00D+00 WtEn= 0.00D+00
 Coeff-Com: -0.102D-05 0.547D-05 0.429D-04 0.322D-05-0.343D-03-0.126D-02
 Coeff-Com:  0.366D-03 0.217D-01-0.321D-01-0.113D+00 0.979D-01 0.103D+01
 Coeff:     -0.102D-05 0.547D-05 0.429D-04 0.322D-05-0.343D-03-0.126D-02
 Coeff:      0.366D-03 0.217D-01-0.321D-01-0.113D+00 0.979D-01 0.103D+01
 Gap=     0.500 Goal=   None    Shift=    0.000
 RMSDP=1.18D-08 MaxDP=3.33D-07 DE=-1.66D-11 OVMax= 8.46D-07

 Cycle  13  Pass 1  IDiag  1:
 E= -389.155202093687     Delta-E=       -0.000000000006 Rises=F Damp=F
 DIIS: error= 1.06D-08 at cycle  13 NSaved=  13.
 NSaved=13 IEnMin=13 EnMin= -389.155202093687     IErMin=13 ErrMin= 1.06D-08
 ErrMax= 1.06D-08  0.00D+00 EMaxC= 1.00D-01 BMatC= 5.47D-14 BMatP= 1.17D-12
 IDIUse=1 WtCom= 1.00D+00 WtEn= 0.00D+00
 Coeff-Com: -0.122D-06 0.462D-06 0.389D-05 0.136D-04-0.170D-04-0.298D-03
 Coeff-Com: -0.849D-03 0.352D-02 0.515D-02-0.212D-01-0.612D-01 0.111D+00
 Coeff-Com:  0.964D+00
 Coeff:     -0.122D-06 0.462D-06 0.389D-05 0.136D-04-0.170D-04-0.298D-03
 Coeff:     -0.849D-03 0.352D-02 0.515D-02-0.212D-01-0.612D-01 0.111D+00
 Coeff:      0.964D+00
 Gap=     0.500 Goal=   None    Shift=    0.000
 RMSDP=2.13D-09 MaxDP=7.03D-08 DE=-5.68D-12 OVMax= 1.05D-07

 SCF Done:  E(RHF) =  -389.155202094     A.U. after   13 cycles
            NFock= 13  Conv=0.21D-08     -V/T= 2.0014
 KE= 3.886259825464D+02 PE=-1.937506126130D+03 EE= 6.432887715675D+02
 Leave Link  502 at Fri Sep 17 13:33:27 2021, MaxMem=   524288000 cpu:              37.7 elap:              38.0
 (Enter /opt/gaussian/g16_legacy/l801.exe)
 ExpMin= 1.61D-01 ExpMax= 3.05D+03 ExpMxC= 4.57D+02 IAcc=3 IRadAn=         5 AccDes= 0.00D+00
 HarFok:  IExCor=  205 AccDes= 0.00D+00 IRadAn=         5 IDoV=-2 UseB2=F ITyADJ=14
 ICtDFT= 12500011 ScaDFX=  1.000000  1.000000  1.000000  1.000000
 Largest valence mixing into a core orbital is  1.98D-04
 Largest core mixing into a valence orbital is  3.52D-05
 Range of M.O.s used for correlation:    11   240
 NBasis=   240 NAE=    39 NBE=    39 NFC=    10 NFV=     0
 NROrb=    230 NOA=    29 NOB=    29 NVA=   201 NVB=   201
 Leave Link  801 at Fri Sep 17 13:33:29 2021, MaxMem=   524288000 cpu:               1.5 elap:               1.5
 (Enter /opt/gaussian/g16_legacy/l906.exe)
 Frozen-core derivative calculation, NFC=  10 NFV=   0.
 FulOut=F Deriv=T AODrv=T NAtomX=    28
   MMem=          88  MDisk=          29 MDiskD=          29
  W3Min=     2246400 MinDsk=     2795480 NBas6D=         240
 NBas2D=       29244    NTT=       28920    LW2=     2040000
    MDV=   523626386 MDiskM=       30186 NBas2p=       24383
 Fully direct method using O(ONN) memory.
 IMap=   1   2   3   4   5   6   7   8   9  10  11  12  13  14  15  16  17  18  19  20
 IMap=  21  22  23  24  25  26  27  28  29  30  31  32  33  34  35  36  37  38  39
 JobTyp=1 Pass  1:  I=  11 to  39 NPSUse=  1 ParTrn=F ParDer=F DoDerP=T.
 Spin components of T(2) and E(2):
     alpha-alpha T2 =       0.5715210205D-01 E2=     -0.1638037709D+00
     alpha-beta  T2 =       0.3618182747D+00 E2=     -0.1089340796D+01
     beta-beta   T2 =       0.5715210205D-01 E2=     -0.1638037709D+00
 The integrals were generated   1 times.
 ANorm=    0.1214957809D+01
 E2 =    -0.1416948338D+01 EUMP2 =    -0.39057215043125D+03
 Leave Link  906 at Fri Sep 17 13:38:09 2021, MaxMem=   524288000 cpu:             280.3 elap:             280.3
 (Enter /opt/gaussian/g16_legacy/l1002.exe)
 Minotr:  Closed shell wavefunction.
          Computing MP2/KS-MP2 derivatives.
          Using Z-Vector for PSCF gradient.
          Skipping F1 and S1 gradient terms here.
          IDoAtm=1111111111111111111111111111
          Frozen-core window.
          Direct CPHF calculation.
          Differentiating once with respect to electric field.
                with respect to dipole field.
          Differentiating once with respect to nuclear coordinates.
          Requested convergence is 1.0D-10 RMS, and 1.0D-09 maximum.
          NewPWx=F KeepS1=T KeepF1=T KeepIn=T MapXYZ=F SortEE=F KeepMc=T.
 Keep R1 ints in memory in canonical form, NReq=425201067.
 FoFCou: FMM=F IPFlag=           0 FMFlag=           0 FMFlg1=           0
         NFxFlg=           0 DoJE=F BraDBF=F KetDBF=F FulRan=T
         wScrn=  0.000000 ICntrl=       600 IOpCl=  0 I1Cent=           0 NGrid=           0
         NMat0=    1 NMatS0=  28920 NMatT0=    0 NMatD0=    1 NMtDS0=    0 NMtDT0=    0
 Symmetry not used in FoFCou.
 Two-electron integral symmetry not used.
          MDV=     524288000 using IRadAn=       5.
          Solving linear equations separately, MaxMat=       0.
          There are     1 degrees of freedom in the 1st order CPHF.  IDoFFX=0 NUNeed=     1.
 LinEq1:  Iter=  0 NonCon=     1 RMS=2.55D-03 Max=3.75D-02 NDo=     1
 AX will form     1 AO Fock derivatives at one time.
 LinEq1:  Iter=  1 NonCon=     1 RMS=6.90D-04 Max=9.74D-03 NDo=     1
 LinEq1:  Iter=  2 NonCon=     1 RMS=1.61D-04 Max=4.14D-03 NDo=     1
 LinEq1:  Iter=  3 NonCon=     1 RMS=4.31D-05 Max=5.07D-04 NDo=     1
 LinEq1:  Iter=  4 NonCon=     1 RMS=1.99D-05 Max=8.55D-04 NDo=     1
 LinEq1:  Iter=  5 NonCon=     1 RMS=5.06D-06 Max=8.27D-05 NDo=     1
 LinEq1:  Iter=  6 NonCon=     1 RMS=1.63D-06 Max=2.68D-05 NDo=     1
 LinEq1:  Iter=  7 NonCon=     1 RMS=4.13D-07 Max=4.19D-06 NDo=     1
 LinEq1:  Iter=  8 NonCon=     1 RMS=1.01D-07 Max=1.86D-06 NDo=     1
 LinEq1:  Iter=  9 NonCon=     1 RMS=2.33D-08 Max=6.32D-07 NDo=     1
 LinEq1:  Iter= 10 NonCon=     1 RMS=6.41D-09 Max=1.63D-07 NDo=     1
 LinEq1:  Iter= 11 NonCon=     1 RMS=1.89D-09 Max=3.63D-08 NDo=     1
 LinEq1:  Iter= 12 NonCon=     1 RMS=4.07D-10 Max=5.89D-09 NDo=     1
 LinEq1:  Iter= 13 NonCon=     1 RMS=1.00D-10 Max=1.45D-09 NDo=     1
 LinEq1:  Iter= 14 NonCon=     0 RMS=3.25D-11 Max=9.03D-10 NDo=     1
 Linear equations converged to 1.000D-10 1.000D-09 after    14 iterations.
 End of Minotr F.D. properties file   721 does not exist.
 End of Minotr F.D. properties file   722 does not exist.
 End of Minotr F.D. properties file   788 does not exist.
 Leave Link 1002 at Fri Sep 17 13:38:50 2021, MaxMem=   524288000 cpu:              41.4 elap:              41.4
 (Enter /opt/gaussian/g16_legacy/l601.exe)
 Copying SCF densities to generalized density rwf, IOpCl= 0 IROHF=0.

 **********************************************************************

            Population analysis using the SCF density.

 **********************************************************************

 Orbital symmetries:
       Occupied  (A) (A) (A) (A) (A) (A) (A) (A) (A) (A) (A) (A)
                 (A) (A) (A) (A) (A) (A) (A) (A) (A) (A) (A) (A)
                 (A) (A) (A) (A) (A) (A) (A) (A) (A) (A) (A) (A)
                 (A) (A) (A)
       Virtual   (A) (A) (A) (A) (A) (A) (A) (A) (A) (A) (A) (A)
                 (A) (A) (A) (A) (A) (A) (A) (A) (A) (A) (A) (A)
                 (A) (A) (A) (A) (A) (A) (A) (A) (A) (A) (A) (A)
                 (A) (A) (A) (A) (A) (A) (A) (A) (A) (A) (A) (A)
                 (A) (A) (A) (A) (A) (A) (A) (A) (A) (A) (A) (A)
                 (A) (A) (A) (A) (A) (A) (A) (A) (A) (A) (A) (A)
                 (A) (A) (A) (A) (A) (A) (A) (A) (A) (A) (A) (A)
                 (A) (A) (A) (A) (A) (A) (A) (A) (A) (A) (A) (A)
                 (A) (A) (A) (A) (A) (A) (A) (A) (A) (A) (A) (A)
                 (A) (A) (A) (A) (A) (A) (A) (A) (A) (A) (A) (A)
                 (A) (A) (A) (A) (A) (A) (A) (A) (A) (A) (A) (A)
                 (A) (A) (A) (A) (A) (A) (A) (A) (A) (A) (A) (A)
                 (A) (A) (A) (A) (A) (A) (A) (A) (A) (A) (A) (A)
                 (A) (A) (A) (A) (A) (A) (A) (A) (A) (A) (A) (A)
                 (A) (A) (A) (A) (A) (A) (A) (A) (A) (A) (A) (A)
                 (A) (A) (A) (A) (A) (A) (A) (A) (A) (A) (A) (A)
                 (A) (A) (A) (A) (A) (A) (A) (A) (A)
 The electronic state is 1-A.
 Alpha  occ. eigenvalues --  -11.23061 -11.22505 -11.21999 -11.21920 -11.21883
 Alpha  occ. eigenvalues --  -11.21650 -11.21554 -11.21484 -11.21457 -11.21438
 Alpha  occ. eigenvalues --   -1.10624  -1.08326  -1.01912  -0.98014  -0.93646
 Alpha  occ. eigenvalues --   -0.91776  -0.86754  -0.82685  -0.70598  -0.69343
 Alpha  occ. eigenvalues --   -0.64584  -0.61545  -0.60102  -0.59031  -0.58088
 Alpha  occ. eigenvalues --   -0.56804  -0.55368  -0.55150  -0.53550  -0.51981
 Alpha  occ. eigenvalues --   -0.51716  -0.51321  -0.50592  -0.49228  -0.48276
 Alpha  occ. eigenvalues --   -0.46013  -0.44273  -0.33355  -0.31524
 Alpha virt. eigenvalues --    0.18455   0.19493   0.22038   0.24453   0.25183
 Alpha virt. eigenvalues --    0.27141   0.28394   0.28932   0.30249   0.30503
 Alpha virt. eigenvalues --    0.31238   0.32117   0.33136   0.33435   0.34032
 Alpha virt. eigenvalues --    0.35677   0.35774   0.36970   0.38998   0.40648
 Alpha virt. eigenvalues --    0.41063   0.42594   0.43321   0.44193   0.45151
 Alpha virt. eigenvalues --    0.51684   0.54046   0.61171   0.62443   0.70139
 Alpha virt. eigenvalues --    0.71102   0.71888   0.74280   0.76416   0.76616
 Alpha virt. eigenvalues --    0.76877   0.78794   0.79454   0.81138   0.82036
 Alpha virt. eigenvalues --    0.83811   0.85656   0.88078   0.91265   0.92027
 Alpha virt. eigenvalues --    0.92895   0.95178   0.97058   0.98263   0.99206
 Alpha virt. eigenvalues --    0.99752   1.00202   1.02302   1.03926   1.06181
 Alpha virt. eigenvalues --    1.07862   1.08639   1.08809   1.11197   1.12391
 Alpha virt. eigenvalues --    1.12560   1.13432   1.14583   1.14925   1.15819
 Alpha virt. eigenvalues --    1.16165   1.16403   1.18225   1.18705   1.20091
 Alpha virt. eigenvalues --    1.20660   1.22066   1.22853   1.25018   1.27541
 Alpha virt. eigenvalues --    1.34172   1.40672   1.41848   1.43739   1.45169
 Alpha virt. eigenvalues --    1.47558   1.53476   1.56257   1.56979   1.58248
 Alpha virt. eigenvalues --    1.59848   1.62719   1.65797   1.69519   1.70790
 Alpha virt. eigenvalues --    1.75329   1.82525   1.92036   1.92196   1.95501
 Alpha virt. eigenvalues --    1.98631   2.01125   2.02850   2.04186   2.08703
 Alpha virt. eigenvalues --    2.09247   2.11123   2.11382   2.13104   2.14508
 Alpha virt. eigenvalues --    2.15427   2.17690   2.19726   2.23578   2.27382
 Alpha virt. eigenvalues --    2.28337   2.29996   2.32202   2.34974   2.35567
 Alpha virt. eigenvalues --    2.35645   2.35781   2.39323   2.39853   2.40349
 Alpha virt. eigenvalues --    2.41282   2.41828   2.43035   2.45159   2.45383
 Alpha virt. eigenvalues --    2.47032   2.48341   2.49333   2.50336   2.54524
 Alpha virt. eigenvalues --    2.56588   2.57720   2.61275   2.62184   2.64353
 Alpha virt. eigenvalues --    2.66342   2.67161   2.72031   2.72993   2.73747
 Alpha virt. eigenvalues --    2.75721   2.77701   2.81094   2.82803   2.85157
 Alpha virt. eigenvalues --    2.87728   2.89153   2.91920   2.93444   2.94436
 Alpha virt. eigenvalues --    2.97094   2.99036   3.01163   3.02601   3.05099
 Alpha virt. eigenvalues --    3.05824   3.06630   3.08505   3.13019   3.15942
 Alpha virt. eigenvalues --    3.17138   3.18164   3.19616   3.20677   3.21266
 Alpha virt. eigenvalues --    3.23192   3.24414   3.26463   3.27243   3.36665
 Alpha virt. eigenvalues --    3.39072   3.44604   3.45620   3.55555   3.57291
 Alpha virt. eigenvalues --    3.58701   3.61057   3.66892   3.73954   3.78201
 Alpha virt. eigenvalues --    3.78869   3.80512   3.81322   3.82334   3.82839
 Alpha virt. eigenvalues --    3.84211   3.85746   3.87655   3.89511   3.91171
 Alpha virt. eigenvalues --    3.95899   4.59094   4.62632   4.74430   4.82817
 Alpha virt. eigenvalues --    4.88837   4.92669   4.93352   5.07549   5.10287
 Alpha virt. eigenvalues --    5.16870
          Condensed to atoms (all electrons):
               1          2          3          4          5          6
     1  C    5.001822   0.412352   0.413511   0.340290  -0.058756   0.003677
     2  H    0.412352   0.571704  -0.030235  -0.040532   0.003238  -0.000103
     3  H    0.413511  -0.030235   0.588503  -0.045059  -0.004691   0.000081
     4  C    0.340290  -0.040532  -0.045059   4.955112   0.349330  -0.041414
     5  C   -0.058756   0.003238  -0.004691   0.349330   4.896467   0.406168
     6  H    0.003677  -0.000103   0.000081  -0.041414   0.406168   0.571068
     7  H   -0.000532  -0.000030  -0.000276  -0.045812   0.400288  -0.028079
     8  H   -0.003554  -0.000016   0.002571  -0.043071   0.397379  -0.027603
     9  C   -0.044041  -0.002233   0.001918   0.698830  -0.045930  -0.002739
    10  H    0.003079   0.000060  -0.000114  -0.036529  -0.006479   0.002222
    11  C   -0.007062  -0.002135   0.000138  -0.050686   0.003424   0.000137
    12  H    0.000227   0.000172   0.000028  -0.001411  -0.000116  -0.000004
    13  H    0.000232  -0.000034  -0.000010   0.000593  -0.000100  -0.000009
    14  H   -0.001828  -0.001333   0.000004  -0.000421   0.000092   0.000004
    15  C   -0.000101  -0.000042  -0.000000   0.000002  -0.000000   0.000000
    16  H    0.000022  -0.000005  -0.000001  -0.000000   0.000000  -0.000000
    17  H   -0.000003  -0.000002   0.000002   0.000000  -0.000000   0.000000
    18  H   -0.000004   0.000001   0.000000   0.000000  -0.000000   0.000000
    19  C   -0.003609   0.001046   0.000615   0.000006  -0.000002   0.000000
    20  C    0.000597   0.000160  -0.000016  -0.000017  -0.000000  -0.000000
    21  H   -0.000053  -0.000052  -0.000012  -0.000027  -0.000000   0.000000
    22  H    0.000077  -0.000076  -0.000001  -0.000002   0.000000  -0.000000
    23  H   -0.000041   0.000014   0.000000   0.000001  -0.000000   0.000000
    24  C   -0.063067  -0.000807  -0.000607   0.006130  -0.000158   0.000003
    25  H    0.000004   0.000213   0.001004  -0.000155   0.000010  -0.000000
    26  C    0.326226  -0.039861  -0.044601  -0.057354  -0.000188  -0.000097
    27  H   -0.040296  -0.002146   0.004203  -0.001437   0.000317  -0.000010
    28  H   -0.045141   0.004292  -0.002605  -0.001851  -0.000392  -0.000025
               7          8          9         10         11         12
     1  C   -0.000532  -0.003554  -0.044041   0.003079  -0.007062   0.000227
     2  H   -0.000030  -0.000016  -0.002233   0.000060  -0.002135   0.000172
     3  H   -0.000276   0.002571   0.001918  -0.000114   0.000138   0.000028
     4  C   -0.045812  -0.043071   0.698830  -0.036529  -0.050686  -0.001411
     5  C    0.400288   0.397379  -0.045930  -0.006479   0.003424  -0.000116
     6  H   -0.028079  -0.027603  -0.002739   0.002222   0.000137  -0.000004
     7  H    0.594749  -0.035015  -0.001033   0.000123  -0.000100  -0.000005
     8  H   -0.035015   0.593624  -0.000426   0.000248  -0.000114   0.000021
     9  C   -0.001033  -0.000426   4.939974   0.404878   0.337720  -0.044366
    10  H    0.000123   0.000248   0.404878   0.559332  -0.043633  -0.000222
    11  C   -0.000100  -0.000114   0.337720  -0.043633   4.906198   0.400032
    12  H   -0.000005   0.000021  -0.044366  -0.000222   0.400032   0.584242
    13  H    0.000015  -0.000004  -0.042848  -0.002647   0.403005  -0.033277
    14  H    0.000000  -0.000001  -0.041935   0.003315   0.408028  -0.026846
    15  C   -0.000000  -0.000000  -0.000000   0.000000  -0.000000   0.000000
    16  H    0.000000  -0.000000  -0.000000  -0.000000   0.000000  -0.000000
    17  H   -0.000000  -0.000000  -0.000000   0.000000   0.000000  -0.000000
    18  H    0.000000   0.000000   0.000000   0.000000  -0.000000   0.000000
    19  C    0.000000   0.000000   0.000001   0.000000   0.000007  -0.000000
    20  C   -0.000000  -0.000000   0.000010  -0.000000  -0.000097   0.000002
    21  H    0.000000  -0.000000  -0.000032   0.000000   0.000040  -0.000008
    22  H    0.000000  -0.000000   0.000000  -0.000000  -0.000003  -0.000000
    23  H    0.000000   0.000000   0.000000   0.000000   0.000002   0.000000
    24  C   -0.000086   0.000001   0.000070   0.000002  -0.000032   0.000002
    25  H    0.000012  -0.000002  -0.000002  -0.000000   0.000000   0.000000
    26  C    0.000810   0.000027  -0.004365  -0.000116   0.000690  -0.000050
    27  H   -0.000009   0.000012   0.001215  -0.000044   0.000070   0.000023
    28  H   -0.000187   0.000093   0.000514   0.000004  -0.000030  -0.000000
              13         14         15         16         17         18
     1  C    0.000232  -0.001828  -0.000101   0.000022  -0.000003  -0.000004
     2  H   -0.000034  -0.001333  -0.000042  -0.000005  -0.000002   0.000001
     3  H   -0.000010   0.000004  -0.000000  -0.000001   0.000002   0.000000
     4  C    0.000593  -0.000421   0.000002  -0.000000   0.000000   0.000000
     5  C   -0.000100   0.000092  -0.000000   0.000000  -0.000000  -0.000000
     6  H   -0.000009   0.000004   0.000000  -0.000000   0.000000   0.000000
     7  H    0.000015   0.000000  -0.000000   0.000000  -0.000000   0.000000
     8  H   -0.000004  -0.000001  -0.000000  -0.000000  -0.000000   0.000000
     9  C   -0.042848  -0.041935  -0.000000  -0.000000  -0.000000   0.000000
    10  H   -0.002647   0.003315   0.000000  -0.000000   0.000000   0.000000
    11  C    0.403005   0.408028  -0.000000   0.000000   0.000000  -0.000000
    12  H   -0.033277  -0.026846   0.000000  -0.000000  -0.000000   0.000000
    13  H    0.586817  -0.030017  -0.000000   0.000000  -0.000000  -0.000000
    14  H   -0.030017   0.573861   0.000000  -0.000000  -0.000000  -0.000000
    15  C   -0.000000   0.000000   4.903225   0.396998   0.405423   0.399267
    16  H    0.000000  -0.000000   0.396998   0.594274  -0.027367  -0.034902
    17  H   -0.000000  -0.000000   0.405423  -0.027367   0.568041  -0.027563
    18  H   -0.000000  -0.000000   0.399267  -0.034902  -0.027563   0.593061
    19  C    0.000000  -0.000013   0.352282  -0.044304  -0.040395  -0.045763
    20  C   -0.000004   0.000010  -0.065377  -0.002140   0.003695  -0.001105
    21  H    0.000042   0.000570   0.003678  -0.000072  -0.000108  -0.000023
    22  H    0.000000   0.000034  -0.003429   0.002847   0.000010  -0.000507
    23  H   -0.000000  -0.000006  -0.001685  -0.000371  -0.000079   0.002553
    24  C   -0.000004   0.000003  -0.044856  -0.000547  -0.002386  -0.001136
    25  H    0.000000  -0.000001  -0.006748   0.000235   0.002177   0.000150
    26  C    0.000091  -0.000212   0.003152  -0.000086   0.000146  -0.000124
    27  H   -0.000079  -0.000252   0.000071  -0.000004   0.000006   0.000004
    28  H    0.000000  -0.000008  -0.000102  -0.000002  -0.000011   0.000012
              19         20         21         22         23         24
     1  C   -0.003609   0.000597  -0.000053   0.000077  -0.000041  -0.063067
     2  H    0.001046   0.000160  -0.000052  -0.000076   0.000014  -0.000807
     3  H    0.000615  -0.000016  -0.000012  -0.000001   0.000000  -0.000607
     4  C    0.000006  -0.000017  -0.000027  -0.000002   0.000001   0.006130
     5  C   -0.000002  -0.000000  -0.000000   0.000000  -0.000000  -0.000158
     6  H    0.000000  -0.000000   0.000000  -0.000000   0.000000   0.000003
     7  H    0.000000  -0.000000   0.000000   0.000000   0.000000  -0.000086
     8  H    0.000000  -0.000000  -0.000000  -0.000000   0.000000   0.000001
     9  C    0.000001   0.000010  -0.000032   0.000000   0.000000   0.000070
    10  H    0.000000  -0.000000   0.000000  -0.000000   0.000000   0.000002
    11  C    0.000007  -0.000097   0.000040  -0.000003   0.000002  -0.000032
    12  H   -0.000000   0.000002  -0.000008  -0.000000   0.000000   0.000002
    13  H    0.000000  -0.000004   0.000042   0.000000  -0.000000  -0.000004
    14  H   -0.000013   0.000010   0.000570   0.000034  -0.000006   0.000003
    15  C    0.352282  -0.065377   0.003678  -0.003429  -0.001685  -0.044856
    16  H   -0.044304  -0.002140  -0.000072   0.002847  -0.000371  -0.000547
    17  H   -0.040395   0.003695  -0.000108   0.000010  -0.000079  -0.002386
    18  H   -0.045763  -0.001105  -0.000023  -0.000507   0.002553  -0.001136
    19  C    4.918260   0.348390  -0.037060  -0.043928  -0.043828   0.698176
    20  C    0.348390   4.909232   0.406147   0.402442   0.398274  -0.043324
    21  H   -0.037060   0.406147   0.568197  -0.030004  -0.026281  -0.002871
    22  H   -0.043928   0.402442  -0.030004   0.586184  -0.033096   0.000449
    23  H   -0.043828   0.398274  -0.026281  -0.033096   0.582527  -0.000842
    24  C    0.698176  -0.043324  -0.002871   0.000449  -0.000842   4.961513
    25  H   -0.036142   0.003365   0.000059  -0.000110  -0.000126   0.402011
    26  C   -0.048266  -0.007533  -0.001944   0.000286   0.000188   0.339913
    27  H    0.000822  -0.002065  -0.001170  -0.000043   0.000056  -0.043820
    28  H    0.000914   0.000169   0.000031  -0.000012   0.000032  -0.043351
              25         26         27         28
     1  C    0.000004   0.326226  -0.040296  -0.045141
     2  H    0.000213  -0.039861  -0.002146   0.004292
     3  H    0.001004  -0.044601   0.004203  -0.002605
     4  C   -0.000155  -0.057354  -0.001437  -0.001851
     5  C    0.000010  -0.000188   0.000317  -0.000392
     6  H   -0.000000  -0.000097  -0.000010  -0.000025
     7  H    0.000012   0.000810  -0.000009  -0.000187
     8  H   -0.000002   0.000027   0.000012   0.000093
     9  C   -0.000002  -0.004365   0.001215   0.000514
    10  H   -0.000000  -0.000116  -0.000044   0.000004
    11  C    0.000000   0.000690   0.000070  -0.000030
    12  H    0.000000  -0.000050   0.000023  -0.000000
    13  H    0.000000   0.000091  -0.000079   0.000000
    14  H   -0.000001  -0.000212  -0.000252  -0.000008
    15  C   -0.006748   0.003152   0.000071  -0.000102
    16  H    0.000235  -0.000086  -0.000004  -0.000002
    17  H    0.002177   0.000146   0.000006  -0.000011
    18  H    0.000150  -0.000124   0.000004   0.000012
    19  C   -0.036142  -0.048266   0.000822   0.000914
    20  C    0.003365  -0.007533  -0.002065   0.000169
    21  H    0.000059  -0.001944  -0.001170   0.000031
    22  H   -0.000110   0.000286  -0.000043  -0.000012
    23  H   -0.000126   0.000188   0.000056   0.000032
    24  C    0.402011   0.339913  -0.043820  -0.043351
    25  H    0.558532  -0.041274   0.003231  -0.003488
    26  C   -0.041274   4.982320   0.414878   0.413777
    27  H    0.003231   0.414878   0.571246  -0.029600
    28  H   -0.003488   0.413777  -0.029600   0.588506
 Mulliken charges:
               1
     1  C   -0.234027
     2  H    0.126389
     3  H    0.115650
     4  C    0.015485
     5  C   -0.339900
     6  H    0.116723
     7  H    0.115165
     8  H    0.115830
     9  C   -0.155179
    10  H    0.116520
    11  C   -0.355597
    12  H    0.121557
    13  H    0.118237
    14  H    0.116951
    15  C   -0.341756
    16  H    0.115426
    17  H    0.118413
    18  H    0.116078
    19  C    0.022791
    20  C   -0.350813
    21  H    0.120953
    22  H    0.118882
    23  H    0.122709
    24  C   -0.160379
    25  H    0.117045
    26  C   -0.236433
    27  H    0.124820
    28  H    0.118461
 Sum of Mulliken charges =  -0.00000
 Mulliken charges with hydrogens summed into heavy atoms:
               1
     1  C    0.008012
     4  C    0.015485
     5  C    0.007817
     9  C   -0.038659
    11  C    0.001148
    15  C    0.008160
    19  C    0.022791
    20  C    0.011732
    24  C   -0.043334
    26  C    0.006847
 Electronic spatial extent (au):  <R**2>=           2423.6432
 Charge=              0.0000 electrons
 Dipole moment (field-independent basis, Debye):
    X=              0.2951    Y=              0.1263    Z=             -0.0060  Tot=              0.3210
 Quadrupole moment (field-independent basis, Debye-Ang):
   XX=            -64.5116   YY=            -63.6038   ZZ=            -67.0540
   XY=              0.6108   XZ=              0.8630   YZ=             -0.4855
 Traceless Quadrupole moment (field-independent basis, Debye-Ang):
   XX=              0.5448   YY=              1.4527   ZZ=             -1.9976
   XY=              0.6108   XZ=              0.8630   YZ=             -0.4855
 Octapole moment (field-independent basis, Debye-Ang**2):
  XXX=              1.3741  YYY=             -2.7209  ZZZ=              0.1850  XYY=             -0.5706
  XXY=              4.5401  XXZ=             -2.6520  XZZ=              1.5765  YZZ=              1.2280
  YYZ=              1.3703  XYZ=             -0.7516
 Hexadecapole moment (field-independent basis, Debye-Ang**3):
 XXXX=          -2492.2686 YYYY=           -696.1285 ZZZZ=           -174.8196 XXXY=             -2.3528
 XXXZ=             11.9384 YYYX=             -9.3529 YYYZ=             -3.0512 ZZZX=             -0.8356
 ZZZY=             -0.0658 XXYY=           -530.4675 XXZZ=           -456.3086 YYZZ=           -139.1727
 XXYZ=             -4.2398 YYXZ=              3.1977 ZZXY=              4.7002
 N-N= 5.164361699222D+02 E-N=-1.937506126243D+03  KE= 3.886259825464D+02
 No NMR shielding tensors so no spin-rotation constants.
 Leave Link  601 at Fri Sep 17 13:38:51 2021, MaxMem=   524288000 cpu:               0.3 elap:               0.3
 (Enter /opt/gaussian/g16_legacy/l701.exe)
 ... and contract with generalized density number  2.
 Compute integral first derivatives.
 Leave Link  701 at Fri Sep 17 13:38:51 2021, MaxMem=   524288000 cpu:               0.3 elap:               0.3
 (Enter /opt/gaussian/g16_legacy/l702.exe)
 L702 exits ... SP integral derivatives will be done elsewhere.
 Leave Link  702 at Fri Sep 17 13:38:51 2021, MaxMem=   524288000 cpu:               0.1 elap:               0.1
 (Enter /opt/gaussian/g16_legacy/l703.exe)
 Integral derivatives from FoFJK, PRISM(SPDF).
 Compute integral first derivatives, UseDBF=F ICtDFT=           0.
 Calling FoFJK, ICntrl=  10002127 FMM=F ISym2X=0 I1Cent= 0 IOpClX= 0 NMat=1 NMatS=1 NMatT=0.
 FoFJK:  IHMeth= 1 ICntrl=10002127 DoSepK=F KAlg= 0 I1Cent=           0 FoldK=F
 IRaf=         0 NMat=       1 IRICut=       1 DoRegI=T DoRafI=F ISym2E= 0 IDoP0=0 IntGTp=1.
 FoFCou: FMM=F IPFlag=           0 FMFlag=      100000 FMFlg1=         800
         NFxFlg=           0 DoJE=F BraDBF=F KetDBF=F FulRan=T
         wScrn=  0.000000 ICntrl=  10002127 IOpCl=  0 I1Cent=           0 NGrid=           0
         NMat0=    1 NMatS0=      1 NMatT0=    0 NMatD0=    1 NMtDS0=    0 NMtDT0=    0
 Symmetry not used in FoFCou.
 Leave Link  703 at Fri Sep 17 13:39:24 2021, MaxMem=   524288000 cpu:              33.2 elap:              33.2
 (Enter /opt/gaussian/g16_legacy/l716.exe)
 Dipole        = 9.11648470D-02 6.69416263D-02-4.81194107D-03
 ***** Axes restored to original set *****
 -------------------------------------------------------------------
 Center     Atomic                   Forces (Hartrees/Bohr)
 Number     Number              X              Y              Z
 -------------------------------------------------------------------
      1        6          -0.008567579    0.001428464   -0.003936843
      2        1           0.001980277   -0.004220105    0.000370927
      3        1           0.001200966   -0.003371469   -0.001296817
      4        6          -0.005220840    0.002873776    0.002448477
      5        6          -0.002507317   -0.002007465   -0.000585613
      6        1           0.003385431    0.002006871   -0.001304809
      7        1          -0.001330779    0.002450955    0.001876385
      8        1           0.002218709   -0.002546849    0.000084209
      9        6           0.002896668   -0.002010382    0.001573028
     10        1           0.002334685    0.000571914    0.002594298
     11        6           0.001556294    0.000877994   -0.001984967
     12        1           0.001965469   -0.001350518   -0.002480502
     13        1          -0.000991999    0.003321692    0.000178121
     14        1          -0.002796420   -0.000558045    0.001718161
     15        6          -0.000216530    0.000861394    0.003330041
     16        1           0.002643840   -0.002247050   -0.000474020
     17        1          -0.001902421   -0.001698331   -0.003545193
     18        1          -0.001066725    0.003035707   -0.000951085
     19        6          -0.001430239    0.002883610    0.004255257
     20        6          -0.003858451   -0.002222285   -0.001156522
     21        1           0.002607999    0.000292958    0.002276758
     22        1           0.002453082   -0.002525099    0.001011771
     23        1          -0.000973263    0.002675770   -0.001313163
     24        6           0.000332919   -0.005132811    0.000771139
     25        1           0.001368617    0.001347289   -0.002843416
     26        6           0.007913221   -0.000209799   -0.000334711
     27        1          -0.001536372    0.003562317    0.001105154
     28        1          -0.002459244    0.001909497   -0.001386065
 -------------------------------------------------------------------
 Cartesian Forces:  Max     0.008567579 RMS     0.002576934
 Leave Link  716 at Fri Sep 17 13:39:24 2021, MaxMem=   524288000 cpu:               0.1 elap:               0.1
 (Enter /opt/gaussian/g16_legacy/l103.exe)

 GradGradGradGradGradGradGradGradGradGradGradGradGradGradGradGradGradGrad
 Berny optimization.
 FormGI is forming the generalized inverse of G from B-inverse, IUseBI=4.
 GSVD:  received Info=                   1 from GESDD.
 Internal  Forces:  Max     0.004885039 RMS     0.001919096
 Search for a local minimum.
 Step number   1 out of a maximum of  138
 All quantities printed in internal units (Hartrees-Bohrs-Radians)
 RMS Force = .19191D-02 SwitMx=.10000D-02 MixMth= 1
 Mixed Optimization -- RFO/linear search
 Second derivative matrix not updated -- first step.
 ITU=  0
     Eigenvalues ---    0.00344   0.00570   0.00671   0.00680   0.00694
     Eigenvalues ---    0.00714   0.00818   0.01219   0.01286   0.01569
     Eigenvalues ---    0.01641   0.02778   0.02784   0.04018   0.04138
     Eigenvalues ---    0.05349   0.05400   0.06978   0.07035   0.07091
     Eigenvalues ---    0.07093   0.07269   0.07301   0.07347   0.07506
     Eigenvalues ---    0.09278   0.09363   0.12767   0.12843   0.15999
     Eigenvalues ---    0.15999   0.16000   0.16000   0.16000   0.16000
     Eigenvalues ---    0.16000   0.16000   0.16000   0.16000   0.16000
     Eigenvalues ---    0.16000   0.16000   0.16000   0.21858   0.21866
     Eigenvalues ---    0.22000   0.22000   0.24994   0.24997   0.24998
     Eigenvalues ---    0.24999   0.29246   0.30869   0.31636   0.31704
     Eigenvalues ---    0.31809   0.31969   0.32792   0.33867   0.33969
     Eigenvalues ---    0.34064   0.34195   0.34213   0.34225   0.34246
     Eigenvalues ---    0.34249   0.34251   0.34258   0.34258   0.34268
     Eigenvalues ---    0.34301   0.34337   0.34544   0.34562   0.34793
     Eigenvalues ---    0.34857   0.55479   0.55572
 RFO step:  Lambda=-2.96083000D-03 EMin= 3.43560440D-03
 Linear search not attempted -- first point.
 Iteration  1 RMS(Cart)=  0.03970894 RMS(Int)=  0.00072334
 Iteration  2 RMS(Cart)=  0.00093455 RMS(Int)=  0.00016595
 Iteration  3 RMS(Cart)=  0.00000043 RMS(Int)=  0.00016595
 ITry= 1 IFail=0 DXMaxC= 1.59D-01 DCOld= 1.00D+10 DXMaxT= 3.00D-01 DXLimC= 3.00D+00 Rises=F
 Variable       Old X    -DE/DX   Delta X   Delta X   Delta X     New X
                                 (Linear)    (Quad)   (Total)
    R1        2.07222  -0.00330   0.00000  -0.00961  -0.00961   2.06261
    R2        2.07555  -0.00277   0.00000  -0.00812  -0.00812   2.06743
    R3        2.86263  -0.00354   0.00000  -0.01135  -0.01135   2.85128
    R4        2.89493   0.00176   0.00000   0.00596   0.00596   2.90089
    R5        2.84814  -0.00043   0.00000  -0.00136  -0.00136   2.84678
    R6        2.54709  -0.00406   0.00000  -0.00727  -0.00727   2.53982
    R7        2.06972  -0.00376   0.00000  -0.01090  -0.01090   2.05882
    R8        2.06824  -0.00176   0.00000  -0.00509  -0.00509   2.06315
    R9        2.06909  -0.00216   0.00000  -0.00624  -0.00624   2.06285
   R10        2.05907  -0.00216   0.00000  -0.00615  -0.00615   2.05292
   R11        2.82718   0.00309   0.00000   0.00933   0.00933   2.83651
   R12        2.06765  -0.00157   0.00000  -0.00452  -0.00452   2.06313
   R13        2.06897  -0.00261   0.00000  -0.00756  -0.00756   2.06141
   R14        2.06392  -0.00286   0.00000  -0.00821  -0.00821   2.05571
   R15        2.06898  -0.00194   0.00000  -0.00562  -0.00562   2.06336
   R16        2.06952  -0.00398   0.00000  -0.01152  -0.01152   2.05800
   R17        2.06912  -0.00199   0.00000  -0.00576  -0.00576   2.06336
   R18        2.84690  -0.00079   0.00000  -0.00247  -0.00247   2.84443
   R19        2.84200  -0.00049   0.00000  -0.00151  -0.00151   2.84049
   R20        2.54627  -0.00326   0.00000  -0.00584  -0.00584   2.54043
   R21        2.06422  -0.00286   0.00000  -0.00820  -0.00820   2.05602
   R22        2.07002  -0.00264   0.00000  -0.00766  -0.00766   2.06237
   R23        2.06880  -0.00185   0.00000  -0.00534  -0.00534   2.06346
   R24        2.06012  -0.00200   0.00000  -0.00570  -0.00570   2.05442
   R25        2.84494  -0.00147   0.00000  -0.00459  -0.00459   2.84035
   R26        2.06917  -0.00278   0.00000  -0.00804  -0.00804   2.06114
   R27        2.07383  -0.00240   0.00000  -0.00699  -0.00699   2.06684
    A1        1.82986   0.00207   0.00000   0.02251   0.02234   1.85220
    A2        1.93008   0.00043   0.00000   0.00931   0.00935   1.93943
    A3        1.91835  -0.00277   0.00000  -0.02019  -0.02023   1.89813
    A4        1.90261  -0.00069   0.00000  -0.00271  -0.00270   1.89991
    A5        1.92011  -0.00195   0.00000  -0.01728  -0.01731   1.90280
    A6        1.95847   0.00282   0.00000   0.00903   0.00907   1.96755
    A7        2.00828   0.00238   0.00000   0.00971   0.00915   2.01743
    A8        2.17069  -0.00489   0.00000  -0.01895  -0.01948   2.15121
    A9        2.10403   0.00252   0.00000   0.01034   0.00976   2.11379
   A10        1.95921  -0.00261   0.00000  -0.01303  -0.01300   1.94621
   A11        1.92809   0.00227   0.00000   0.01213   0.01216   1.94025
   A12        1.92480   0.00166   0.00000   0.00902   0.00904   1.93384
   A13        1.87701   0.00055   0.00000   0.00562   0.00566   1.88267
   A14        1.87761   0.00109   0.00000   0.01013   0.01016   1.88777
   A15        1.89497  -0.00307   0.00000  -0.02471  -0.02471   1.87026
   A16        2.06968  -0.00194   0.00000  -0.01339  -0.01340   2.05628
   A17        2.22507  -0.00187   0.00000  -0.00835  -0.00837   2.21670
   A18        1.98830   0.00381   0.00000   0.02191   0.02189   2.01019
   A19        1.91715   0.00396   0.00000   0.02337   0.02334   1.94049
   A20        1.90994   0.00238   0.00000   0.01566   0.01560   1.92555
   A21        1.98125  -0.00299   0.00000  -0.01844  -0.01835   1.96290
   A22        1.88717  -0.00310   0.00000  -0.01887  -0.01905   1.86812
   A23        1.89302  -0.00097   0.00000  -0.00773  -0.00763   1.88539
   A24        1.87269   0.00052   0.00000   0.00494   0.00501   1.87770
   A25        1.87922   0.00092   0.00000   0.00934   0.00938   1.88860
   A26        1.89488  -0.00313   0.00000  -0.02541  -0.02540   1.86948
   A27        1.92489   0.00221   0.00000   0.01237   0.01240   1.93729
   A28        1.87882   0.00092   0.00000   0.00791   0.00795   1.88677
   A29        1.96054  -0.00276   0.00000  -0.01380  -0.01376   1.94678
   A30        1.92347   0.00174   0.00000   0.00874   0.00876   1.93223
   A31        1.99467   0.00146   0.00000   0.00582   0.00580   2.00047
   A32        2.10583   0.00182   0.00000   0.00725   0.00722   2.11305
   A33        2.18263  -0.00329   0.00000  -0.01295  -0.01297   2.16966
   A34        1.97968  -0.00222   0.00000  -0.01017  -0.01015   1.96953
   A35        1.92081   0.00000   0.00000  -0.00089  -0.00087   1.91993
   A36        1.92158   0.00230   0.00000   0.01171   0.01174   1.93332
   A37        1.86380   0.00199   0.00000   0.01689   0.01690   1.88071
   A38        1.88436   0.00024   0.00000   0.00332   0.00335   1.88771
   A39        1.89072  -0.00240   0.00000  -0.02165  -0.02163   1.86909
   A40        2.06710  -0.00167   0.00000  -0.01181  -0.01221   2.05489
   A41        2.22717  -0.00226   0.00000  -0.00995  -0.01036   2.21681
   A42        1.98879   0.00394   0.00000   0.02255   0.02212   2.01092
   A43        1.94454   0.00330   0.00000   0.01362   0.01365   1.95819
   A44        1.92603  -0.00264   0.00000  -0.02491  -0.02498   1.90105
   A45        1.92086  -0.00238   0.00000  -0.01473  -0.01493   1.90594
   A46        1.94657  -0.00052   0.00000  -0.00240  -0.00235   1.94422
   A47        1.88064   0.00060   0.00000   0.01703   0.01708   1.89772
   A48        1.84185   0.00155   0.00000   0.01191   0.01165   1.85350
    D1       -2.64266  -0.00174   0.00000  -0.05215  -0.05194  -2.69460
    D2        0.47848  -0.00076   0.00000   0.01006   0.00983   0.48831
    D3       -0.63969   0.00059   0.00000  -0.02148  -0.02124  -0.66093
    D4        2.48144   0.00157   0.00000   0.04073   0.04053   2.52197
[...]
                 (A) (A) (A) (A) (A) (A) (A) (A) (A) (A) (A) (A)
                 (A) (A) (A) (A) (A) (A) (A) (A) (A) (A) (A) (A)
                 (A) (A) (A) (A) (A) (A) (A) (A) (A) (A) (A) (A)
                 (A) (A) (A) (A) (A) (A) (A) (A) (A) (A) (A) (A)
                 (A) (A) (A) (A) (A) (A) (A) (A) (A) (A) (A) (A)
                 (A) (A) (A) (A) (A) (A) (A) (A) (A) (A) (A) (A)
                 (A) (A) (A) (A) (A) (A) (A) (A) (A) (A) (A) (A)
                 (A) (A) (A) (A) (A) (A) (A) (A) (A) (A) (A) (A)
                 (A) (A) (A) (A) (A) (A) (A) (A) (A) (A) (A) (A)
                 (A) (A) (A) (A) (A) (A) (A) (A) (A) (A) (A) (A)
                 (A) (A) (A) (A) (A) (A) (A) (A) (A) (A) (A) (A)
                 (A) (A) (A) (A) (A) (A) (A) (A) (A) (A) (A) (A)
                 (A) (A) (A) (A) (A) (A) (A) (A) (A)
 The electronic state is 1-A.
 Alpha  occ. eigenvalues --  -11.23020 -11.22460 -11.21868 -11.21730 -11.21712
 Alpha  occ. eigenvalues --  -11.21539 -11.21506 -11.21436 -11.21417 -11.21348
 Alpha  occ. eigenvalues --   -1.10821  -1.08492  -1.01823  -0.98143  -0.93838
 Alpha  occ. eigenvalues --   -0.91939  -0.86963  -0.82855  -0.70494  -0.69519
 Alpha  occ. eigenvalues --   -0.64988  -0.61512  -0.60591  -0.58878  -0.58366
 Alpha  occ. eigenvalues --   -0.56774  -0.55298  -0.54966  -0.53295  -0.52261
 Alpha  occ. eigenvalues --   -0.51859  -0.51173  -0.50832  -0.49581  -0.48519
 Alpha  occ. eigenvalues --   -0.46073  -0.44624  -0.33371  -0.31514
 Alpha virt. eigenvalues --    0.18142   0.19779   0.22152   0.24486   0.25192
 Alpha virt. eigenvalues --    0.27439   0.28535   0.28922   0.30318   0.30811
 Alpha virt. eigenvalues --    0.31477   0.32261   0.33202   0.33794   0.34383
 Alpha virt. eigenvalues --    0.35458   0.36114   0.36962   0.39185   0.40602
 Alpha virt. eigenvalues --    0.41328   0.42631   0.43685   0.44253   0.45395
 Alpha virt. eigenvalues --    0.51702   0.54378   0.61070   0.62576   0.70520
 Alpha virt. eigenvalues --    0.71073   0.72196   0.73768   0.76075   0.76177
 Alpha virt. eigenvalues --    0.76620   0.79010   0.79474   0.81070   0.82306
 Alpha virt. eigenvalues --    0.83713   0.85579   0.89117   0.91091   0.91343
 Alpha virt. eigenvalues --    0.92820   0.94745   0.97065   0.98284   0.98818
 Alpha virt. eigenvalues --    0.99710   1.00468   1.01911   1.03844   1.06577
 Alpha virt. eigenvalues --    1.08019   1.08221   1.09393   1.11664   1.12687
 Alpha virt. eigenvalues --    1.13026   1.13870   1.14856   1.15402   1.16045
 Alpha virt. eigenvalues --    1.16257   1.16619   1.18722   1.19116   1.20671
 Alpha virt. eigenvalues --    1.20953   1.23032   1.23885   1.25765   1.28153
 Alpha virt. eigenvalues --    1.34331   1.41722   1.42153   1.44890   1.46395
 Alpha virt. eigenvalues --    1.48456   1.54136   1.55360   1.57256   1.58165
 Alpha virt. eigenvalues --    1.61459   1.63397   1.66485   1.69046   1.69645
 Alpha virt. eigenvalues --    1.73917   1.82243   1.91111   1.93363   1.96231
 Alpha virt. eigenvalues --    1.98688   2.01467   2.02277   2.03942   2.08565
 Alpha virt. eigenvalues --    2.09706   2.10748   2.11744   2.13037   2.14903
 Alpha virt. eigenvalues --    2.15780   2.16940   2.19854   2.23666   2.28347
 Alpha virt. eigenvalues --    2.29590   2.30325   2.33235   2.35347   2.35688
 Alpha virt. eigenvalues --    2.35978   2.36098   2.38923   2.40264   2.41259
 Alpha virt. eigenvalues --    2.42195   2.43169   2.44154   2.45371   2.46084
 Alpha virt. eigenvalues --    2.47201   2.49167   2.49622   2.51174   2.54099
 Alpha virt. eigenvalues --    2.57315   2.58365   2.61888   2.63241   2.64107
 Alpha virt. eigenvalues --    2.67127   2.68175   2.71776   2.73352   2.73474
 Alpha virt. eigenvalues --    2.75815   2.77410   2.80796   2.82635   2.85354
 Alpha virt. eigenvalues --    2.87136   2.89441   2.92178   2.93739   2.94867
 Alpha virt. eigenvalues --    2.97869   2.99094   3.00960   3.02677   3.05807
 Alpha virt. eigenvalues --    3.06402   3.07703   3.09315   3.13762   3.17093
 Alpha virt. eigenvalues --    3.17589   3.19238   3.20046   3.21242   3.22334
 Alpha virt. eigenvalues --    3.24167   3.25050   3.26607   3.27420   3.37866
 Alpha virt. eigenvalues --    3.40355   3.46023   3.46902   3.56200   3.58183
 Alpha virt. eigenvalues --    3.59499   3.62406   3.67928   3.75494   3.78622
 Alpha virt. eigenvalues --    3.80005   3.81570   3.82569   3.83286   3.83898
 Alpha virt. eigenvalues --    3.84750   3.86481   3.87645   3.89820   3.91558
 Alpha virt. eigenvalues --    3.97645   4.59389   4.63170   4.74472   4.82572
 Alpha virt. eigenvalues --    4.88928   4.92582   4.93409   5.07840   5.10766
 Alpha virt. eigenvalues --    5.17766
          Condensed to atoms (all electrons):
               1          2          3          4          5          6
     1  C    5.004768   0.411714   0.414473   0.337355  -0.056085   0.003801
     2  H    0.411714   0.572983  -0.028296  -0.038988   0.003071  -0.000108
     3  H    0.414473  -0.028296   0.587507  -0.046308  -0.004587   0.000106
     4  C    0.337355  -0.038988  -0.046308   4.952603   0.351934  -0.042765
     5  C   -0.056085   0.003071  -0.004587   0.351934   4.891804   0.407087
     6  H    0.003801  -0.000108   0.000106  -0.042765   0.407087   0.568858
     7  H    0.000011  -0.000005  -0.000489  -0.045679   0.400946  -0.027466
     8  H   -0.003698  -0.000034   0.002378  -0.041506   0.397495  -0.026764
     9  C   -0.047991  -0.001860   0.002531   0.697840  -0.046054  -0.002890
    10  H    0.003272   0.000031  -0.000118  -0.037842  -0.006525   0.002385
    11  C   -0.007749  -0.002811   0.000160  -0.050271   0.003364   0.000132
    12  H    0.000152   0.000184   0.000017  -0.000627  -0.000106  -0.000006
    13  H    0.000310  -0.000067  -0.000013  -0.000247  -0.000095  -0.000006
    14  H   -0.001745  -0.001657   0.000030  -0.000691   0.000109   0.000005
    15  C   -0.000099  -0.000043  -0.000004   0.000001  -0.000000   0.000000
    16  H    0.000024  -0.000007  -0.000002  -0.000000   0.000000  -0.000000
    17  H   -0.000003  -0.000002   0.000003   0.000000  -0.000000   0.000000
    18  H   -0.000005   0.000002   0.000000   0.000000  -0.000000   0.000000
    19  C   -0.004325   0.001388   0.000787   0.000041  -0.000003   0.000000
    20  C    0.000587   0.000200  -0.000015  -0.000018  -0.000000  -0.000000
    21  H   -0.000302  -0.000131  -0.000016  -0.000011  -0.000000   0.000000
    22  H    0.000130  -0.000135  -0.000002  -0.000005   0.000000  -0.000000
    23  H   -0.000040   0.000022   0.000000   0.000001  -0.000000   0.000000
    24  C   -0.061827  -0.000504  -0.000900   0.006443  -0.000149   0.000004
    25  H    0.000175   0.000111   0.001011  -0.000152   0.000010  -0.000000
    26  C    0.332330  -0.041801  -0.046074  -0.055544  -0.000661  -0.000109
    27  H   -0.042369  -0.003118   0.004477  -0.001813   0.000243  -0.000005
    28  H   -0.046841   0.004515  -0.001931  -0.002075  -0.000289  -0.000050
               7          8          9         10         11         12
     1  C    0.000011  -0.003698  -0.047991   0.003272  -0.007749   0.000152
     2  H   -0.000005  -0.000034  -0.001860   0.000031  -0.002811   0.000184
     3  H   -0.000489   0.002378   0.002531  -0.000118   0.000160   0.000017
     4  C   -0.045679  -0.041506   0.697840  -0.037842  -0.050271  -0.000627
     5  C    0.400946   0.397495  -0.046054  -0.006525   0.003364  -0.000106
     6  H   -0.027466  -0.026764  -0.002890   0.002385   0.000132  -0.000006
     7  H    0.596034  -0.037541  -0.001011   0.000135  -0.000101  -0.000004
     8  H   -0.037541   0.591921  -0.000373   0.000216  -0.000105   0.000017
     9  C   -0.001011  -0.000373   4.938971   0.404494   0.340494  -0.041523
    10  H    0.000135   0.000216   0.404494   0.558671  -0.041278  -0.001122
    11  C   -0.000101  -0.000105   0.340494  -0.041278   4.900974   0.401144
    12  H   -0.000004   0.000017  -0.041523  -0.001122   0.401144   0.583648
    13  H    0.000017  -0.000004  -0.041805  -0.001264   0.402169  -0.035462
    14  H   -0.000003   0.000002  -0.043903   0.003299   0.409079  -0.027132
    15  C   -0.000000  -0.000000  -0.000000   0.000000  -0.000000   0.000000
    16  H    0.000000  -0.000000   0.000000  -0.000000  -0.000000  -0.000000
    17  H   -0.000000  -0.000000  -0.000000   0.000000   0.000000  -0.000000
    18  H    0.000000   0.000000   0.000000   0.000000   0.000000   0.000000
    19  C    0.000000   0.000000  -0.000001   0.000000   0.000013  -0.000000
    20  C   -0.000000   0.000000   0.000015  -0.000000  -0.000147   0.000004
    21  H    0.000000  -0.000000  -0.000045   0.000000   0.000074  -0.000013
    22  H    0.000000  -0.000000   0.000000  -0.000000  -0.000009  -0.000000
    23  H   -0.000000   0.000000   0.000000   0.000000   0.000003   0.000000
    24  C   -0.000111   0.000004   0.000114   0.000002  -0.000031   0.000002
    25  H    0.000015  -0.000001  -0.000002  -0.000000   0.000000   0.000000
    26  C    0.000609   0.000086  -0.004911  -0.000113   0.000577  -0.000037
    27  H   -0.000015   0.000006   0.001406  -0.000046  -0.000082   0.000037
    28  H    0.000197   0.000058   0.000760   0.000001  -0.000033  -0.000000
              13         14         15         16         17         18
     1  C    0.000310  -0.001745  -0.000099   0.000024  -0.000003  -0.000005
     2  H   -0.000067  -0.001657  -0.000043  -0.000007  -0.000002   0.000002
     3  H   -0.000013   0.000030  -0.000004  -0.000002   0.000003   0.000000
     4  C   -0.000247  -0.000691   0.000001  -0.000000   0.000000   0.000000
     5  C   -0.000095   0.000109  -0.000000   0.000000  -0.000000  -0.000000
     6  H   -0.000006   0.000005   0.000000  -0.000000   0.000000   0.000000
     7  H    0.000017  -0.000003  -0.000000   0.000000  -0.000000   0.000000
     8  H   -0.000004   0.000002  -0.000000  -0.000000  -0.000000   0.000000
     9  C   -0.041805  -0.043903  -0.000000   0.000000  -0.000000   0.000000
    10  H   -0.001264   0.003299   0.000000  -0.000000   0.000000   0.000000
    11  C    0.402169   0.409079  -0.000000  -0.000000   0.000000   0.000000
    12  H   -0.035462  -0.027132   0.000000  -0.000000  -0.000000   0.000000
    13  H    0.586720  -0.029956  -0.000000   0.000000  -0.000000  -0.000000
    14  H   -0.029956   0.577164   0.000000  -0.000000  -0.000000  -0.000000
    15  C   -0.000000   0.000000   4.900112   0.398238   0.406218   0.398811
    16  H    0.000000  -0.000000   0.398238   0.594542  -0.026703  -0.037806
    17  H   -0.000000  -0.000000   0.406218  -0.026703   0.566018  -0.026549
    18  H   -0.000000  -0.000000   0.398811  -0.037806  -0.026549   0.593607
    19  C    0.000001  -0.000026   0.353753  -0.043899  -0.041639  -0.044274
    20  C   -0.000015  -0.000000  -0.064931  -0.001975   0.003785  -0.001201
    21  H    0.000114   0.000412   0.003725  -0.000068  -0.000113  -0.000031
    22  H    0.000000   0.000079  -0.002632   0.002756  -0.000032  -0.000476
    23  H   -0.000000  -0.000008  -0.002223  -0.000456  -0.000053   0.002766
    24  C   -0.000009   0.000026  -0.044415  -0.000422  -0.002632  -0.001270
    25  H    0.000000  -0.000002  -0.006963   0.000182   0.002335   0.000187
    26  C    0.000163  -0.000737   0.003126  -0.000068   0.000148  -0.000131
    27  H   -0.000140  -0.000475   0.000051  -0.000005   0.000007   0.000007
    28  H   -0.000000  -0.000010  -0.000094  -0.000002  -0.000010   0.000009
              19         20         21         22         23         24
     1  C   -0.004325   0.000587  -0.000302   0.000130  -0.000040  -0.061827
     2  H    0.001388   0.000200  -0.000131  -0.000135   0.000022  -0.000504
     3  H    0.000787  -0.000015  -0.000016  -0.000002   0.000000  -0.000900
     4  C    0.000041  -0.000018  -0.000011  -0.000005   0.000001   0.006443
     5  C   -0.000003  -0.000000  -0.000000   0.000000  -0.000000  -0.000149
     6  H    0.000000  -0.000000   0.000000  -0.000000   0.000000   0.000004
     7  H    0.000000  -0.000000   0.000000   0.000000  -0.000000  -0.000111
     8  H    0.000000   0.000000  -0.000000  -0.000000   0.000000   0.000004
     9  C   -0.000001   0.000015  -0.000045   0.000000   0.000000   0.000114
    10  H    0.000000  -0.000000   0.000000  -0.000000   0.000000   0.000002
    11  C    0.000013  -0.000147   0.000074  -0.000009   0.000003  -0.000031
    12  H   -0.000000   0.000004  -0.000013  -0.000000   0.000000   0.000002
    13  H    0.000001  -0.000015   0.000114   0.000000  -0.000000  -0.000009
    14  H   -0.000026  -0.000000   0.000412   0.000079  -0.000008   0.000026
    15  C    0.353753  -0.064931   0.003725  -0.002632  -0.002223  -0.044415
    16  H   -0.043899  -0.001975  -0.000068   0.002756  -0.000456  -0.000422
    17  H   -0.041639   0.003785  -0.000113  -0.000032  -0.000053  -0.002632
    18  H   -0.044274  -0.001201  -0.000031  -0.000476   0.002766  -0.001270
    19  C    4.914192   0.350333  -0.037848  -0.043385  -0.043537   0.697734
    20  C    0.350333   4.907254   0.407154   0.401208   0.399852  -0.044248
    21  H   -0.037848   0.407154   0.568221  -0.028659  -0.026060  -0.003253
    22  H   -0.043385   0.401208  -0.028659   0.587442  -0.035759  -0.000031
    23  H   -0.043537   0.399852  -0.026060  -0.035759   0.584669  -0.000365
    24  C    0.697734  -0.044248  -0.003253  -0.000031  -0.000365   4.962746
    25  H   -0.038449   0.003528   0.000061  -0.000121  -0.000121   0.403391
    26  C   -0.050100  -0.008144  -0.002069   0.000367   0.000117   0.338699
    27  H    0.000438  -0.002693  -0.001675  -0.000076   0.000113  -0.044060
    28  H    0.001583   0.000195   0.000058  -0.000014   0.000021  -0.041395
              25         26         27         28
     1  C    0.000175   0.332330  -0.042369  -0.046841
     2  H    0.000111  -0.041801  -0.003118   0.004515
     3  H    0.001011  -0.046074   0.004477  -0.001931
     4  C   -0.000152  -0.055544  -0.001813  -0.002075
     5  C    0.000010  -0.000661   0.000243  -0.000289
     6  H   -0.000000  -0.000109  -0.000005  -0.000050
     7  H    0.000015   0.000609  -0.000015   0.000197
     8  H   -0.000001   0.000086   0.000006   0.000058
     9  C   -0.000002  -0.004911   0.001406   0.000760
    10  H   -0.000000  -0.000113  -0.000046   0.000001
    11  C    0.000000   0.000577  -0.000082  -0.000033
    12  H    0.000000  -0.000037   0.000037  -0.000000
    13  H    0.000000   0.000163  -0.000140  -0.000000
    14  H   -0.000002  -0.000737  -0.000475  -0.000010
    15  C   -0.006963   0.003126   0.000051  -0.000094
    16  H    0.000182  -0.000068  -0.000005  -0.000002
    17  H    0.002335   0.000148   0.000007  -0.000010
    18  H    0.000187  -0.000131   0.000007   0.000009
    19  C   -0.038449  -0.050100   0.000438   0.001583
    20  C    0.003528  -0.008144  -0.002693   0.000195
    21  H    0.000061  -0.002069  -0.001675   0.000058
    22  H   -0.000121   0.000367  -0.000076  -0.000014
    23  H   -0.000121   0.000117   0.000113   0.000021
    24  C    0.403391   0.338699  -0.044060  -0.041395
    25  H    0.557389  -0.039114   0.003152  -0.003424
    26  C   -0.039114   4.979543   0.415850   0.413482
    27  H    0.003152   0.415850   0.575347  -0.028362
    28  H   -0.003424   0.413482  -0.028362   0.585267
 Mulliken charges:
               1
     1  C   -0.236021
     2  H    0.125346
     3  H    0.115272
     4  C    0.018322
     5  C   -0.341505
     6  H    0.117792
     7  H    0.114461
     8  H    0.117845
     9  C   -0.154256
    10  H    0.115801
    11  C   -0.355567
    12  H    0.120829
    13  H    0.119588
    14  H    0.116140
    15  C   -0.342631
    16  H    0.115672
    17  H    0.119222
    18  H    0.116356
    19  C    0.027221
    20  C   -0.350727
    21  H    0.120474
    22  H    0.119352
    23  H    0.121058
    24  C   -0.163542
    25  H    0.116803
    26  C   -0.235486
    27  H    0.123802
    28  H    0.118380
 Sum of Mulliken charges =  -0.00000
 Mulliken charges with hydrogens summed into heavy atoms:
               1
     1  C    0.004596
     4  C    0.018322
     5  C    0.008593
     9  C   -0.038454
    11  C    0.000991
    15  C    0.008618
    19  C    0.027221
    20  C    0.010156
    24  C   -0.046740
    26  C    0.006696
 Electronic spatial extent (au):  <R**2>=           2384.0079
 Charge=             -0.0000 electrons
 Dipole moment (field-independent basis, Debye):
    X=              0.3027    Y=              0.1253    Z=              0.0460  Tot=              0.3308
 Quadrupole moment (field-independent basis, Debye-Ang):
   XX=            -64.3023   YY=            -63.2901   ZZ=            -67.3956
   XY=              0.7521   XZ=              1.2367   YZ=             -0.3487
 Traceless Quadrupole moment (field-independent basis, Debye-Ang):
   XX=              0.6937   YY=              1.7059   ZZ=             -2.3996
   XY=              0.7521   XZ=              1.2367   YZ=             -0.3487
 Octapole moment (field-independent basis, Debye-Ang**2):
  XXX=              2.6683  YYY=             -2.9989  ZZZ=              0.8999  XYY=             -0.6416
  XXY=              4.0909  XXZ=             -2.0918  XZZ=              1.2120  YZZ=              1.4955
  YYZ=              0.6111  XYZ=             -0.3641
 Hexadecapole moment (field-independent basis, Debye-Ang**3):
 XXXX=          -2435.7194 YYYY=           -693.4920 ZZZZ=           -166.6416 XXXY=              2.3047
 XXXZ=             14.7515 YYYX=            -11.0526 YYYZ=             -1.4215 ZZZX=              2.8119
 ZZZY=             -0.6410 XXYY=           -520.1251 XXZZ=           -449.2344 YYZZ=           -138.3648
 XXYZ=             -4.2785 YYXZ=              0.5785 ZZXY=              5.9188
 N-N= 5.190879136535D+02 E-N=-1.942888566642D+03  KE= 3.887471639732D+02
 No NMR shielding tensors so no spin-rotation constants.
 Leave Link  601 at Fri Sep 17 14:53:59 2021, MaxMem=   524288000 cpu:               0.3 elap:               0.7
 (Enter /opt/gaussian/g16_legacy/l9999.exe)
 1\1\GINC-TRUENO90\FOpt\RMP2-FC\6-31G(d,p)\C10H18\JRAMOS\17-Sep-2021\0\
 \#p opt mp2/6-31g(d,p)\\Conformer number 1831. Energy MM = 23.242 kcal
 /mol\\0,1\C,-0.8423605099,0.2622646612,0.7686276296\H,-0.8129426891,1.
 0337004222,-0.0024346398\H,-0.7777560078,0.7856694455,1.7269393024\C,-
 2.1271777785,-0.5254030252,0.7146430174\C,-2.6134014931,-1.0639243019,
 2.0326082571\H,-3.5002796574,-1.6841694337,1.9090675854\H,-1.842723950
 8,-1.6674615734,2.5172483021\H,-2.8570304723,-0.249734942,2.7185861296
 \C,-2.7872580387,-0.7907009638,-0.4281005083\H,-3.690456523,-1.3909107
 422,-0.3608414375\C,-2.4119593399,-0.3463960311,-1.809290687\H,-3.2050
 011945,0.2572094043,-2.2548314472\H,-2.2628916752,-1.2074479758,-2.463
 5646169\H,-1.4962833035,0.2404464115,-1.8210529476\C,3.6761771063,1.44
 25707454,0.1134004712\H,3.6101150168,2.4590722932,-0.2810212928\H,3.84
 37063534,1.503042891,1.1876609438\H,4.5543509266,0.9818440454,-0.34467
 81875\C,2.4326928799,0.6606318445,-0.2087297262\C,2.1345831999,0.53009
 20462,-1.6767058845\H,1.2140201415,-0.012594631,-1.8762013749\H,2.0477
 659636,1.5190020167,-2.1320686958\H,2.9513532389,0.0172616505,-2.18960
 80618\C,1.6751280761,0.1316757211,0.7705898121\H,1.9842809889,0.314855
 2669,1.7966028095\C,0.3978510649,-0.6375066463,0.6068614658\H,0.347904
 9902,-1.1272467922,-0.3664286961\H,0.3577926868,-1.435741807,1.3528224
 779\\Version=EM64L-G16RevA.03\State=1-A\HF=-389.1567535\MP2=-390.57386
 46\RMSD=5.134e-09\RMSF=3.180e-06\Dipole=0.0764443,0.0444242,-0.0754865
 \PG=C01 [X(C10H18)]\\@


 CHINESE FORTUNE COOKIE OF JAN 1 1967 SAY....
 ALL THINGS ARE DIFFICULT BEFORE THEY ARE EASY.
 WE LEARN SO LITTLE AND FORGET SO MUCH.
 YOU WILL OVERCOME OBSTACLES TO ACHIEVE SUCCESS.
 AH SO.
 Job cpu time:       0 days  1 hours 21 minutes 16.0 seconds.
 Elapsed time:       0 days  1 hours 21 minutes 21.4 seconds.
 File lengths (MBytes):  RWF=     32 Int=      0 D2E=      0 Chk=      7 Scr=      1
 Normal termination of Gaussian 16 at Fri Sep 17 14:54:00 2021.
