 Entering Gaussian System, Link 0=/opt/gaussian/g16_legacy/g16
 Input=01-IsoP_3452_gaussian.com
 Output=01-IsoP_3452_gaussian.log
 Initial command:
 /opt/gaussian/g16_legacy/l1.exe "/scratch-local/jramos/2661398/Gau-20398.inp" -scrdir="/scratch-local/jramos/2661398/"
 Entering Link 1 = /opt/gaussian/g16_legacy/l1.exe PID=     20399.
  
 Copyright (c) 1988,1990,1992,1993,1995,1998,2003,2009,2016,
            Gaussian, Inc.  All Rights Reserved.
  
 This is part of the Gaussian(R) 16 program.  It is based on
 the Gaussian(R) 09 system (copyright 2009, Gaussian, Inc.),
 the Gaussian(R) 03 system (copyright 2003, Gaussian, Inc.),
 the Gaussian(R) 98 system (copyright 1998, Gaussian, Inc.),
 the Gaussian(R) 94 system (copyright 1995, Gaussian, Inc.),
 the Gaussian 92(TM) system (copyright 1992, Gaussian, Inc.),
 the Gaussian 90(TM) system (copyright 1990, Gaussian, Inc.),
 the Gaussian 88(TM) system (copyright 1988, Gaussian, Inc.),
 the Gaussian 86(TM) system (copyright 1986, Carnegie Mellon
 University), and the Gaussian 82(TM) system (copyright 1983,
 Carnegie Mellon University). Gaussian is a federally registered
 trademark of Gaussian, Inc.
  
 This software contains proprietary and confidential information,
 including trade secrets, belonging to Gaussian, Inc.
  
 This software is provided under written license and may be
 used, copied, transmitted, or stored only in accord with that
 written license.
  
 The following legend is applicable only to US Government
 contracts under FAR:
  
                    RESTRICTED RIGHTS LEGEND
  
 Use, reproduction and disclosure by the US Government is
 subject to restrictions as set forth in subparagraphs (a)
 and (c) of the Commercial Computer Software - Restricted
 Rights clause in FAR 52.227-19.
  
 Gaussian, Inc.
 340 Quinnipiac St., Bldg. 40, Wallingford CT 06492
  
  
 ---------------------------------------------------------------
 Warning -- This program may not be used in any manner that
 competes with the business of Gaussian, Inc. or will provide
 assistance to any competitor of Gaussian, Inc.  The licensee
 of this program is prohibited from giving any competitor of
 Gaussian, Inc. access to this program.  By using this program,
 the user acknowledges that Gaussian, Inc. is engaged in the
 business of creating and licensing software in the field of
 computational chemistry and represents and warrants to the
 licensee that it is not a competitor of Gaussian, Inc. and that
 it will not use this program in any manner prohibited above.
 ---------------------------------------------------------------
  

 Cite this work as:
 Gaussian 16, Revision A.03,
 M. J. Frisch, G. W. Trucks, H. B. Schlegel, G. E. Scuseria, 
 M. A. Robb, J. R. Cheeseman, G. Scalmani, V. Barone, 
 G. A. Petersson, H. Nakatsuji, X. Li, M. Caricato, A. V. Marenich, 
 J. Bloino, B. G. Janesko, R. Gomperts, B. Mennucci, H. P. Hratchian, 
 J. V. Ortiz, A. F. Izmaylov, J. L. Sonnenberg, D. Williams-Young, 
 F. Ding, F. Lipparini, F. Egidi, J. Goings, B. Peng, A. Petrone, 
 T. Henderson, D. Ranasinghe, V. G. Zakrzewski, J. Gao, N. Rega, 
 G. Zheng, W. Liang, M. Hada, M. Ehara, K. Toyota, R. Fukuda, 
 J. Hasegawa, M. Ishida, T. Nakajima, Y. Honda, O. Kitao, H. Nakai, 
 T. Vreven, K. Throssell, J. A. Montgomery, Jr., J. E. Peralta, 
 F. Ogliaro, M. J. Bearpark, J. J. Heyd, E. N. Brothers, K. N. Kudin, 
 V. N. Staroverov, T. A. Keith, R. Kobayashi, J. Normand, 
 K. Raghavachari, A. P. Rendell, J. C. Burant, S. S. Iyengar, 
 J. Tomasi, M. Cossi, J. M. Millam, M. Klene, C. Adamo, R. Cammi, 
 J. W. Ochterski, R. L. Martin, K. Morokuma, O. Farkas, 
 J. B. Foresman, and D. J. Fox, Gaussian, Inc., Wallingford CT, 2016.
 
 ******************************************
 Gaussian 16:  EM64L-G16RevA.03 25-Dec-2016
                17-Sep-2021 
 ******************************************
 %chk=01-IsoP_3452_gaussian.chk
 %nproc=1
 Will use up to    1 processors via shared memory.
 %mem=4000Mb
 ---------------------
 #p opt mp2/6-31g(d,p)
 ---------------------
 1/18=20,19=15,38=1/1,3;
 2/9=110,12=2,17=6,18=5,40=1/2;
 3/5=1,6=6,7=101,11=9,25=1,30=1,71=1/1,2,3;
 4//1;
 5/5=2,38=5/2;
 8/6=4,10=2/1;
 9/15=2,16=-3/6;
 10/5=1/2;
 6/7=2,8=2,9=2,10=2/1;
 7/12=2/1,2,3,16;
 1/18=20,19=15/3(2);
 2/9=110/2;
 99//99;
 2/9=110/2;
 3/5=1,6=6,7=101,11=9,25=1,30=1,71=1/1,2,3;
 4/5=5,16=3,69=1/1;
 5/5=2,38=5/2;
 8/6=4,10=2/1;
 9/15=2,16=-3/6;
 10/5=1/2;
 7/12=2/1,2,3,16;
 1/18=20,19=15/3(-8);
 2/9=110/2;
 6/7=2,8=2,9=2,10=2/1;
 99//99;
 Leave Link    1 at Fri Sep 17 15:15:48 2021, MaxMem=   524288000 cpu:               0.0 elap:               0.1
 (Enter /opt/gaussian/g16_legacy/l101.exe)
 --------------------------------------------------
 Conformer number 3452. Energy MM = 23.242 kcal/mol
 --------------------------------------------------
 Symbolic Z-matrix:
 Charge =  0 Multiplicity = 1
 C                     0.9017    0.7981   -0.1661 
 H                     0.5976    0.8664    0.8853 
 H                     0.9415    1.8385   -0.5157 
 C                     2.2821    0.1852   -0.2825 
 C                     3.0762    0.624    -1.486 
 H                     4.0684    0.1616   -1.5194 
 H                     2.5542    0.3521   -2.4088 
 H                     3.2176    1.7097   -1.4722 
 C                     2.8114   -0.6733    0.6116 
 H                     3.8243   -1.0395    0.4463 
 C                     2.1583   -1.2283    1.8379 
 H                     2.2398   -2.3201    1.8316 
 H                     1.097    -0.9823    1.9157 
 H                     2.667    -0.8541    2.7314 
 C                    -3.86      0.9649   -0.115 
 H                    -4.6635    0.2925   -0.4331 
 H                    -4.1002    1.3481    0.8821 
 H                    -3.8472    1.816    -0.804 
 C                    -2.5455    0.2294   -0.0893 
 C                    -2.5173   -0.9548    0.8373 
 H                    -2.8423   -0.6552    1.8396 
 H                    -3.1957   -1.7333    0.4738 
 H                    -1.5246   -1.3971    0.9467 
 C                    -1.5099    0.6468   -0.8435 
 H                    -1.6438    1.5327   -1.4645 
 C                    -0.1477    0.0168   -0.9631 
 H                     0.1218    0.0019   -2.0268 
 H                    -0.1612   -1.0321   -0.6493 
 
 ITRead=  0  0  0  0  0  0  0  0  0  0  0  0  0  0  0  0  0  0  0  0
 ITRead=  0  0  0  0  0  0  0  0
 MicOpt= -1 -1 -1 -1 -1 -1 -1 -1 -1 -1 -1 -1 -1 -1 -1 -1 -1 -1 -1 -1
 MicOpt= -1 -1 -1 -1 -1 -1 -1 -1
 NAtoms=     28 NQM=       28 NQMF=       0 NMMI=      0 NMMIF=      0
                NMic=       0 NMicF=      0.
                    Isotopes and Nuclear Properties:
 (Nuclear quadrupole moments (NQMom) in fm**2, nuclear magnetic moments (NMagM)
  in nuclear magnetons)

  Atom         1           2           3           4           5           6           7           8           9          10
 IAtWgt=          12           1           1          12          12           1           1           1          12           1
 AtmWgt=  12.0000000   1.0078250   1.0078250  12.0000000  12.0000000   1.0078250   1.0078250   1.0078250  12.0000000   1.0078250
 NucSpn=           0           1           1           0           0           1           1           1           0           1
 AtZEff=  -0.0000000  -0.0000000  -0.0000000  -0.0000000  -0.0000000  -0.0000000  -0.0000000  -0.0000000  -0.0000000  -0.0000000
 NQMom=    0.0000000   0.0000000   0.0000000   0.0000000   0.0000000   0.0000000   0.0000000   0.0000000   0.0000000   0.0000000
 NMagM=    0.0000000   2.7928460   2.7928460   0.0000000   0.0000000   2.7928460   2.7928460   2.7928460   0.0000000   2.7928460
 AtZNuc=   6.0000000   1.0000000   1.0000000   6.0000000   6.0000000   1.0000000   1.0000000   1.0000000   6.0000000   1.0000000

  Atom        11          12          13          14          15          16          17          18          19          20
 IAtWgt=          12           1           1           1          12           1           1           1          12          12
 AtmWgt=  12.0000000   1.0078250   1.0078250   1.0078250  12.0000000   1.0078250   1.0078250   1.0078250  12.0000000  12.0000000
 NucSpn=           0           1           1           1           0           1           1           1           0           0
 AtZEff=  -0.0000000  -0.0000000  -0.0000000  -0.0000000  -0.0000000  -0.0000000  -0.0000000  -0.0000000  -0.0000000  -0.0000000
 NQMom=    0.0000000   0.0000000   0.0000000   0.0000000   0.0000000   0.0000000   0.0000000   0.0000000   0.0000000   0.0000000
 NMagM=    0.0000000   2.7928460   2.7928460   2.7928460   0.0000000   2.7928460   2.7928460   2.7928460   0.0000000   0.0000000
 AtZNuc=   6.0000000   1.0000000   1.0000000   1.0000000   6.0000000   1.0000000   1.0000000   1.0000000   6.0000000   6.0000000

  Atom        21          22          23          24          25          26          27          28
 IAtWgt=           1           1           1          12           1          12           1           1
 AtmWgt=   1.0078250   1.0078250   1.0078250  12.0000000   1.0078250  12.0000000   1.0078250   1.0078250
 NucSpn=           1           1           1           0           1           0           1           1
 AtZEff=  -0.0000000  -0.0000000  -0.0000000  -0.0000000  -0.0000000  -0.0000000  -0.0000000  -0.0000000
 NQMom=    0.0000000   0.0000000   0.0000000   0.0000000   0.0000000   0.0000000   0.0000000   0.0000000
 NMagM=    2.7928460   2.7928460   2.7928460   0.0000000   2.7928460   0.0000000   2.7928460   2.7928460
 AtZNuc=   1.0000000   1.0000000   1.0000000   6.0000000   1.0000000   6.0000000   1.0000000   1.0000000
 Leave Link  101 at Fri Sep 17 15:15:49 2021, MaxMem=   524288000 cpu:               0.1 elap:               0.2
 (Enter /opt/gaussian/g16_legacy/l103.exe)

 GradGradGradGradGradGradGradGradGradGradGradGradGradGradGradGradGradGrad
 Berny optimization.
 Initialization pass.
                           ----------------------------
                           !    Initial Parameters    !
                           ! (Angstroms and Degrees)  !
 --------------------------                            --------------------------
 ! Name  Definition              Value          Derivative Info.                !
 --------------------------------------------------------------------------------
 ! R1    R(1,2)                  1.0966         estimate D2E/DX2                !
 ! R2    R(1,3)                  1.0983         estimate D2E/DX2                !
 ! R3    R(1,4)                  1.5148         estimate D2E/DX2                !
 ! R4    R(1,26)                 1.532          estimate D2E/DX2                !
 ! R5    R(4,5)                  1.5072         estimate D2E/DX2                !
 ! R6    R(4,9)                  1.3478         estimate D2E/DX2                !
 ! R7    R(5,6)                  1.0952         estimate D2E/DX2                !
 ! R8    R(5,7)                  1.0945         estimate D2E/DX2                !
 ! R9    R(5,8)                  1.095          estimate D2E/DX2                !
 ! R10   R(9,10)                 1.0897         estimate D2E/DX2                !
 ! R11   R(9,11)                 1.4961         estimate D2E/DX2                !
 ! R12   R(11,12)                1.0949         estimate D2E/DX2                !
 ! R13   R(11,13)                1.0922         estimate D2E/DX2                !
 ! R14   R(11,14)                1.0941         estimate D2E/DX2                !
 ! R15   R(15,16)                1.095          estimate D2E/DX2                !
 ! R16   R(15,17)                1.0949         estimate D2E/DX2                !
 ! R17   R(15,18)                1.0951         estimate D2E/DX2                !
 ! R18   R(15,19)                1.5065         estimate D2E/DX2                !
 ! R19   R(19,20)                1.5039         estimate D2E/DX2                !
 ! R20   R(19,24)                1.3474         estimate D2E/DX2                !
 ! R21   R(20,21)                1.0954         estimate D2E/DX2                !
 ! R22   R(20,22)                1.0947         estimate D2E/DX2                !
 ! R23   R(20,23)                1.0923         estimate D2E/DX2                !
 ! R24   R(24,25)                1.0901         estimate D2E/DX2                !
 ! R25   R(24,26)                1.5056         estimate D2E/DX2                !
 ! R26   R(26,27)                1.0974         estimate D2E/DX2                !
 ! R27   R(26,28)                1.0949         estimate D2E/DX2                !
 ! A1    A(2,1,3)              104.8469         estimate D2E/DX2                !
 ! A2    A(2,1,4)              110.5833         estimate D2E/DX2                !
 ! A3    A(2,1,26)             109.9137         estimate D2E/DX2                !
 ! A4    A(3,1,4)              109.0137         estimate D2E/DX2                !
 ! A5    A(3,1,26)             110.0196         estimate D2E/DX2                !
 ! A6    A(4,1,26)             112.2034         estimate D2E/DX2                !
 ! A7    A(1,4,5)              115.0677         estimate D2E/DX2                !
 ! A8    A(1,4,9)              124.3746         estimate D2E/DX2                !
 ! A9    A(5,4,9)              120.5472         estimate D2E/DX2                !
 ! A10   A(4,5,6)              112.2577         estimate D2E/DX2                !
 ! A11   A(4,5,7)              110.4648         estimate D2E/DX2                !
 ! A12   A(4,5,8)              110.283          estimate D2E/DX2                !
 ! A13   A(6,5,7)              107.5466         estimate D2E/DX2                !
 ! A14   A(6,5,8)              107.58           estimate D2E/DX2                !
 ! A15   A(7,5,8)              108.5743         estimate D2E/DX2                !
 ! A16   A(4,9,10)             118.5854         estimate D2E/DX2                !
 ! A17   A(4,9,11)             127.4877         estimate D2E/DX2                !
 ! A18   A(10,9,11)            113.919          estimate D2E/DX2                !
 ! A19   A(9,11,12)            109.4335         estimate D2E/DX2                !
 ! A20   A(9,11,13)            113.5162         estimate D2E/DX2                !
 ! A21   A(9,11,14)            109.8478         estimate D2E/DX2                !
 ! A22   A(12,11,13)           107.2982         estimate D2E/DX2                !
 ! A23   A(12,11,14)           108.1279         estimate D2E/DX2                !
 ! A24   A(13,11,14)           108.4558         estimate D2E/DX2                !
 ! A25   A(16,15,17)           108.5728         estimate D2E/DX2                !
 ! A26   A(16,15,18)           107.6414         estimate D2E/DX2                !
 ! A27   A(16,15,19)           110.2089         estimate D2E/DX2                !
 ! A28   A(17,15,18)           107.6699         estimate D2E/DX2                !
 ! A29   A(17,15,19)           110.2895         estimate D2E/DX2                !
 ! A30   A(18,15,19)           112.3319         estimate D2E/DX2                !
 ! A31   A(15,19,20)           114.2869         estimate D2E/DX2                !
 ! A32   A(15,19,24)           120.6535         estimate D2E/DX2                !
 ! A33   A(20,19,24)           125.0569         estimate D2E/DX2                !
 ! A34   A(19,20,21)           110.049          estimate D2E/DX2                !
 ! A35   A(19,20,22)           110.1061         estimate D2E/DX2                !
 ! A36   A(19,20,23)           113.4287         estimate D2E/DX2                !
 ! A37   A(21,20,22)           108.3278         estimate D2E/DX2                !
 ! A38   A(21,20,23)           106.7829         estimate D2E/DX2                !
 ! A39   A(22,20,23)           107.9689         estimate D2E/DX2                !
 ! A40   A(19,24,25)           118.4374         estimate D2E/DX2                !
 ! A41   A(19,24,26)           127.6061         estimate D2E/DX2                !
 ! A42   A(25,24,26)           113.9492         estimate D2E/DX2                !
 ! A43   A(1,26,24)            111.4098         estimate D2E/DX2                !
 ! A44   A(1,26,27)            110.058          estimate D2E/DX2                !
 ! A45   A(1,26,28)            110.3596         estimate D2E/DX2                !
 ! A46   A(24,26,27)           107.7503         estimate D2E/DX2                !
 ! A47   A(24,26,28)           111.5266         estimate D2E/DX2                !
 ! A48   A(27,26,28)           105.5342         estimate D2E/DX2                !
 ! D1    D(2,1,4,5)           -151.413          estimate D2E/DX2                !
 ! D2    D(2,1,4,9)             27.4086         estimate D2E/DX2                !
 ! D3    D(3,1,4,5)            -36.647          estimate D2E/DX2                !
 ! D4    D(3,1,4,9)            142.1746         estimate D2E/DX2                !
 ! D5    D(26,1,4,5)            85.4768         estimate D2E/DX2                !
 ! D6    D(26,1,4,9)           -95.7017         estimate D2E/DX2                !
 ! D7    D(2,1,26,24)           56.9442         estimate D2E/DX2                !
 ! D8    D(2,1,26,27)          176.4012         estimate D2E/DX2                !
 ! D9    D(2,1,26,28)          -67.5205         estimate D2E/DX2                !
 ! D10   D(3,1,26,24)          -58.0201         estimate D2E/DX2                !
 ! D11   D(3,1,26,27)           61.437          estimate D2E/DX2                !
 ! D12   D(3,1,26,28)          177.5153         estimate D2E/DX2                !
 ! D13   D(4,1,26,24)         -179.5695         estimate D2E/DX2                !
 ! D14   D(4,1,26,27)          -60.1125         estimate D2E/DX2                !
 ! D15   D(4,1,26,28)           55.9658         estimate D2E/DX2                !
 ! D16   D(1,4,5,6)            179.4365         estimate D2E/DX2                !
 ! D17   D(1,4,5,7)            -60.5351         estimate D2E/DX2                !
 ! D18   D(1,4,5,8)             59.4905         estimate D2E/DX2                !
 ! D19   D(9,4,5,6)              0.5659         estimate D2E/DX2                !
 ! D20   D(9,4,5,7)            120.5943         estimate D2E/DX2                !
 ! D21   D(9,4,5,8)           -119.3801         estimate D2E/DX2                !
 ! D22   D(1,4,9,10)          -178.5969         estimate D2E/DX2                !
 ! D23   D(1,4,9,11)             2.4899         estimate D2E/DX2                !
 ! D24   D(5,4,9,10)             0.1636         estimate D2E/DX2                !
 ! D25   D(5,4,9,11)          -178.7496         estimate D2E/DX2                !
 ! D26   D(4,9,11,12)          127.7502         estimate D2E/DX2                !
 ! D27   D(4,9,11,13)            7.9225         estimate D2E/DX2                !
 ! D28   D(4,9,11,14)         -113.6868         estimate D2E/DX2                !
 ! D29   D(10,9,11,12)         -51.2058         estimate D2E/DX2                !
 ! D30   D(10,9,11,13)        -171.0335         estimate D2E/DX2                !
 ! D31   D(10,9,11,14)          67.3572         estimate D2E/DX2                !
 ! D32   D(16,15,19,20)        -59.5984         estimate D2E/DX2                !
 ! D33   D(16,15,19,24)        120.9758         estimate D2E/DX2                !
 ! D34   D(17,15,19,20)         60.2659         estimate D2E/DX2                !
 ! D35   D(17,15,19,24)       -119.1599         estimate D2E/DX2                !
 ! D36   D(18,15,19,20)       -179.6204         estimate D2E/DX2                !
 ! D37   D(18,15,19,24)          0.9537         estimate D2E/DX2                !
 ! D38   D(15,19,20,21)        -52.7914         estimate D2E/DX2                !
 ! D39   D(15,19,20,22)         66.5528         estimate D2E/DX2                !
 ! D40   D(15,19,20,23)       -172.3381         estimate D2E/DX2                !
 ! D41   D(24,19,20,21)        126.6052         estimate D2E/DX2                !
 ! D42   D(24,19,20,22)       -114.0506         estimate D2E/DX2                !
 ! D43   D(24,19,20,23)          7.0585         estimate D2E/DX2                !
 ! D44   D(15,19,24,25)          0.5232         estimate D2E/DX2                !
 ! D45   D(15,19,24,26)       -178.4305         estimate D2E/DX2                !
 ! D46   D(20,19,24,25)       -178.8375         estimate D2E/DX2                !
 ! D47   D(20,19,24,26)          2.2088         estimate D2E/DX2                !
 ! D48   D(19,24,26,1)        -103.3671         estimate D2E/DX2                !
 ! D49   D(19,24,26,27)        135.8145         estimate D2E/DX2                !
 ! D50   D(19,24,26,28)         20.4388         estimate D2E/DX2                !
 ! D51   D(25,24,26,1)          77.6396         estimate D2E/DX2                !
 ! D52   D(25,24,26,27)        -43.1788         estimate D2E/DX2                !
 ! D53   D(25,24,26,28)       -158.5545         estimate D2E/DX2                !
 --------------------------------------------------------------------------------
 Trust Radius=3.00D-01 FncErr=1.00D-07 GrdErr=1.00D-07 EigMax=2.50D+02 EigMin=1.00D-04
 Number of steps in this run=    138 maximum allowed number of steps=    168.
 GradGradGradGradGradGradGradGradGradGradGradGradGradGradGradGradGradGrad

 Leave Link  103 at Fri Sep 17 15:15:49 2021, MaxMem=   524288000 cpu:               0.0 elap:               0.1
 (Enter /opt/gaussian/g16_legacy/l202.exe)
                          Input orientation:                          
 ---------------------------------------------------------------------
 Center     Atomic      Atomic             Coordinates (Angstroms)
 Number     Number       Type             X           Y           Z
 ---------------------------------------------------------------------
      1          6           0        0.901700    0.798100   -0.166100
      2          1           0        0.597600    0.866400    0.885300
      3          1           0        0.941500    1.838500   -0.515700
      4          6           0        2.282100    0.185200   -0.282500
      5          6           0        3.076200    0.624000   -1.486000
      6          1           0        4.068400    0.161600   -1.519400
      7          1           0        2.554200    0.352100   -2.408800
      8          1           0        3.217600    1.709700   -1.472200
      9          6           0        2.811400   -0.673300    0.611600
     10          1           0        3.824300   -1.039500    0.446300
     11          6           0        2.158300   -1.228300    1.837900
     12          1           0        2.239800   -2.320100    1.831600
     13          1           0        1.097000   -0.982300    1.915700
     14          1           0        2.667000   -0.854100    2.731400
     15          6           0       -3.860000    0.964900   -0.115000
     16          1           0       -4.663500    0.292500   -0.433100
     17          1           0       -4.100200    1.348100    0.882100
     18          1           0       -3.847200    1.816000   -0.804000
     19          6           0       -2.545500    0.229400   -0.089300
     20          6           0       -2.517300   -0.954800    0.837300
     21          1           0       -2.842300   -0.655200    1.839600
     22          1           0       -3.195700   -1.733300    0.473800
     23          1           0       -1.524600   -1.397100    0.946700
     24          6           0       -1.509900    0.646800   -0.843500
     25          1           0       -1.643800    1.532700   -1.464500
     26          6           0       -0.147700    0.016800   -0.963100
     27          1           0        0.121800    0.001900   -2.026800
     28          1           0       -0.161200   -1.032100   -0.649300
 ---------------------------------------------------------------------
                    Distance matrix (angstroms):
                    1          2          3          4          5
     1  C    0.000000
     2  H    1.096624   0.000000
     3  H    1.098288   1.739554   0.000000
     4  C    1.514827   2.159938   2.141259   0.000000
     5  C    2.549686   3.438790   2.640726   1.507167   0.000000
     6  H    3.502077   4.280862   3.687399   2.172866   1.095167
     7  H    2.821237   3.865732   2.897242   2.150127   1.094520
     8  H    2.810748   3.623998   2.472269   2.148173   1.094956
     9  C    2.533138   2.710442   3.328133   1.347811   2.480531
    10  H    3.506194   3.773164   4.185554   2.099862   2.657192
    11  C    3.114700   2.780467   4.052814   2.551354   3.914316
    12  H    3.937574   3.707572   4.948672   3.278374   4.513730
    13  H    2.746244   2.174584   3.727305   2.756737   4.250764
    14  H    3.773799   3.263529   4.557533   3.211212   4.487615
    15  C    4.764895   4.569519   4.896748   6.193656   7.078610
    16  H    5.594495   5.454055   5.814892   6.948061   7.818021
    17  H    5.140061   4.722433   5.254815   6.591084   7.591636
    18  H    4.898478   4.848889   4.797423   6.363944   7.058290
    19  C    3.494640   3.351819   3.863960   4.831667   5.806031
    20  C    3.971024   3.608556   4.647196   5.058438   6.259199
    21  H    4.489148   3.880576   5.107164   5.609729   6.908300
    22  H    4.858616   4.617023   5.554574   5.853112   6.981003
    23  H    3.456032   3.103375   4.323120   4.301810   5.583031
    24  C    2.509497   2.734690   2.745353   3.860966   4.630944
    25  H    2.950432   3.315025   2.770832   4.315735   4.806724
    26  C    1.531953   2.166535   2.169128   2.528933   3.321995
    27  H    2.168959   3.074748   2.515637   2.782639   3.067239
    28  H    2.170915   2.556380   3.078009   2.754283   3.731420
                    6          7          8          9         10
     6  H    0.000000
     7  H    1.766387   0.000000
     8  H    1.767117   1.777751   0.000000
     9  C    2.611181   3.200065   3.191537   0.000000
    10  H    2.316507   3.420716   3.406879   1.089676   0.000000
    11  C    4.105090   4.548501   4.550903   1.496120   2.178934
    12  H    4.553220   5.022001   5.301931   2.127693   2.463662
    13  H    4.683763   4.754509   4.818887   2.176080   3.098479
    14  H    4.589648   5.281032   4.954441   2.132391   2.568151
    15  C    8.091796   6.839518   7.244939   6.907910   7.961228
    16  H    8.800185   7.483457   8.074647   7.609093   8.636569
    17  H    8.596570   7.490199   7.695692   7.206209   8.287838
    18  H    8.118224   6.759904   7.097125   7.248275   8.280643
    19  C    6.767086   5.603755   6.108766   5.477454   6.517003
    20  C    7.083207   6.161596   6.732193   5.340901   6.354207
    21  H    7.727083   6.941597   7.299531   5.785554   6.821475
    22  H    7.767280   6.761629   7.534692   6.101462   7.054255
    23  H    6.308157   5.563784   6.163744   4.408750   5.384144
    24  C    5.640008   4.365080   4.886131   4.746958   5.741157
    25  H    5.874705   4.461919   4.864627   5.387526   6.337783
    26  C    4.255107   3.082651   3.801360   3.422308   4.344993
    27  H    3.982287   2.486993   3.578846   3.827662   4.572663
    28  H    4.480124   3.519268   4.428422   3.248839   4.133353
                   11         12         13         14         15
    11  C    0.000000
    12  H    1.094856   0.000000
    13  H    1.092212   1.761469   0.000000
    14  H    1.094141   1.772370   1.773895   0.000000
    15  C    6.696557   7.196391   5.699753   7.349319   0.000000
    16  H    7.348961   7.720757   6.350223   8.066287   1.094953
    17  H    6.835219   7.385990   5.788781   7.352863   1.094873
    18  H    7.232802   7.816987   6.298600   7.878026   1.095105
    19  C    5.288168   5.752295   4.330825   6.024988   1.506496
    20  C    4.789284   5.048037   3.771852   5.520391   2.528827
    21  H    5.033334   5.347868   3.953590   5.584555   2.735123
    22  H    5.548073   5.633171   4.590245   6.343580   2.840469
    23  H    3.792952   3.975636   2.825563   4.587975   3.487168
    24  C    4.915445   5.478951   4.130748   5.699044   2.480901
    25  H    5.743251   6.386759   5.026227   6.471892   2.656142
    26  C    3.835819   4.355641   3.291651   4.725498   3.924199
    27  H    4.538351   4.976430   4.178872   5.463629   4.520739
    28  H    3.406573   3.684917   2.857407   4.411296   4.237288
                   16         17         18         19         20
    16  H    0.000000
    17  H    1.778018   0.000000
    18  H    1.767757   1.768014   0.000000
    19  C    2.146649   2.147603   2.173136   0.000000
    20  C    2.788521   2.794804   3.484226   1.503899   0.000000
    21  H    3.062690   2.551927   3.755699   2.142723   1.095441
    22  H    2.660972   3.237260   3.828153   2.142903   1.094724
    23  H    3.822472   3.764839   4.333986   2.181980   1.092269
    24  C    3.199867   3.190481   2.613725   1.347408   2.530823
    25  H    3.423517   3.402133   2.317648   2.098292   3.499849
    26  C    4.555147   4.560634   4.116884   2.560892   3.130567
    27  H    5.052071   5.300871   4.532015   3.304565   4.010386
    28  H    4.698086   4.850388   4.660708   2.754972   2.786963
                   21         22         23         24         25
    21  H    0.000000
    22  H    1.775556   0.000000
    23  H    1.756138   1.768966   0.000000
    24  C    3.266423   3.200325   2.717087   0.000000
    25  H    4.140095   4.102701   3.796291   1.090133   0.000000
    26  C    3.945577   3.797083   2.746325   1.505587   2.188074
    27  H    4.915966   4.502191   3.675532   2.116256   2.403513
    28  H    3.677632   3.310774   2.130563   2.162270   3.072597
                   26         27         28
    26  C    0.000000
    27  H    1.097411   0.000000
    28  H    1.094917   1.745495   0.000000
 Stoichiometry    C10H18
 Framework group  C1[X(C10H18)]
 Deg. of freedom    78
 Full point group                 C1      NOp   1
 Largest Abelian subgroup         C1      NOp   1
 Largest concise Abelian subgroup C1      NOp   1
                         Standard orientation:                         
 ---------------------------------------------------------------------
 Center     Atomic      Atomic             Coordinates (Angstroms)
 Number     Number       Type             X           Y           Z
 ---------------------------------------------------------------------
      1          6           0       -0.793784   -0.586572    0.589188
      2          1           0       -0.484653    0.235285    1.246130
      3          1           0       -0.746058   -1.484318    1.220068
      4          6           0       -2.220883   -0.386973    0.122017
      5          6           0       -2.975679   -1.654971   -0.184604
      6          1           0       -4.003267   -1.458101   -0.508172
      7          1           0       -2.478717   -2.212112   -0.984977
      8          1           0       -3.025257   -2.291701    0.704804
      9          6           0       -2.820205    0.813911   -0.001623
     10          1           0       -3.860373    0.846702   -0.324682
     11          6           0       -2.215674    2.161881    0.234800
     12          1           0       -2.388717    2.797212   -0.639912
     13          1           0       -1.137417    2.131940    0.406241
     14          1           0       -2.690789    2.635691    1.099041
     15          6           0        3.965090   -0.407951    0.429714
     16          1           0        4.709078   -0.227545   -0.353138
     17          1           0        4.237015    0.181118    1.311645
     18          1           0        4.023682   -1.466076    0.705747
     19          6           0        2.593395   -0.018233   -0.056191
     20          6           0        2.466015    1.425909   -0.456118
     21          1           0        2.815410    2.072714    0.356013
     22          1           0        3.076407    1.626165   -1.342538
     23          1           0        1.439670    1.725942   -0.678931
     24          6           0        1.596311   -0.923566   -0.097442
     25          1           0        1.804032   -1.940177    0.236836
     26          6           0        0.185908   -0.715550   -0.581474
     27          1           0       -0.084259   -1.577122   -1.205183
     28          1           0        0.111247    0.157067   -1.238595
 ---------------------------------------------------------------------
 Rotational constants (GHZ):           2.2181303           0.5802337           0.4854271
 Leave Link  202 at Fri Sep 17 15:15:50 2021, MaxMem=   524288000 cpu:               0.0 elap:               0.7
 (Enter /opt/gaussian/g16_legacy/l301.exe)
 Standard basis: 6-31G(d,p) (6D, 7F)
 Ernie: Thresh=  0.10000D-02 Tol=  0.10000D-05 Strict=F.
 There are   240 symmetry adapted cartesian basis functions of A   symmetry.
 There are   240 symmetry adapted basis functions of A   symmetry.
   240 basis functions,   406 primitive gaussians,   240 cartesian basis functions
    39 alpha electrons       39 beta electrons
       nuclear repulsion energy       516.4367243977 Hartrees.
 IExCor=    0 DFT=F Ex=HF Corr=None ExCW=0 ScaHFX=  1.000000
 ScaDFX=  1.000000  1.000000  1.000000  1.000000 ScalE2=  1.000000  1.000000
 IRadAn=      5 IRanWt=     -1 IRanGd=            0 ICorTp=0 IEmpDi=  4
 NAtoms=   28 NActive=   28 NUniq=   28 SFac= 1.00D+00 NAtFMM=   60 NAOKFM=F Big=F
 Integral buffers will be    131072 words long.
 Raffenetti 1 integral format.
 Two-electron integral symmetry is turned on.
 Leave Link  301 at Fri Sep 17 15:15:51 2021, MaxMem=   524288000 cpu:               0.1 elap:               1.0
 (Enter /opt/gaussian/g16_legacy/l302.exe)
 NPDir=0 NMtPBC=     1 NCelOv=     1 NCel=       1 NClECP=     1 NCelD=      1
         NCelK=      1 NCelE2=     1 NClLst=     1 CellRange=     0.0.
 One-electron integrals computed using PRISM.
 One-electron integral symmetry used in STVInt
 NBasis=   240 RedAO= T EigKep=  2.10D-03  NBF=   240
 NBsUse=   240 1.00D-06 EigRej= -1.00D+00 NBFU=   240
 Leave Link  302 at Fri Sep 17 15:15:54 2021, MaxMem=   524288000 cpu:               0.2 elap:               1.7
 (Enter /opt/gaussian/g16_legacy/l303.exe)
 DipDrv:  MaxL=1.
 Leave Link  303 at Fri Sep 17 15:15:54 2021, MaxMem=   524288000 cpu:               0.0 elap:               0.0
 (Enter /opt/gaussian/g16_legacy/l401.exe)
 ExpMin= 1.61D-01 ExpMax= 3.05D+03 ExpMxC= 4.57D+02 IAcc=3 IRadAn=         5 AccDes= 0.00D+00
 Harris functional with IExCor=  205 and IRadAn=       5 diagonalized for initial guess.
 HarFok:  IExCor=  205 AccDes= 0.00D+00 IRadAn=         5 IDoV= 1 UseB2=F ITyADJ=14
 ICtDFT=  3500011 ScaDFX=  1.000000  1.000000  1.000000  1.000000
 FoFCou: FMM=F IPFlag=           0 FMFlag=      100000 FMFlg1=           0
         NFxFlg=           0 DoJE=T BraDBF=F KetDBF=T FulRan=T
         wScrn=  0.000000 ICntrl=       500 IOpCl=  0 I1Cent=   200000004 NGrid=           0
         NMat0=    1 NMatS0=      1 NMatT0=    0 NMatD0=    1 NMtDS0=    0 NMtDT0=    0
 Petite list used in FoFCou.
 Harris En= -390.109902258610    
 JPrj=0 DoOrth=F DoCkMO=F.
 Leave Link  401 at Fri Sep 17 15:16:01 2021, MaxMem=   524288000 cpu:               6.4 elap:               7.2
 (Enter /opt/gaussian/g16_legacy/l502.exe)
 Keep R1 ints in memory in canonical form, NReq=425198025.
 FoFCou: FMM=F IPFlag=           0 FMFlag=           0 FMFlg1=           0
         NFxFlg=           0 DoJE=F BraDBF=F KetDBF=F FulRan=T
         wScrn=  0.000000 ICntrl=       600 IOpCl=  0 I1Cent=           0 NGrid=           0
         NMat0=    1 NMatS0=  28920 NMatT0=    0 NMatD0=    1 NMtDS0=    0 NMtDT0=    0
 Symmetry not used in FoFCou.
 Two-electron integral symmetry not used.
 Closed shell SCF:
 Using DIIS extrapolation, IDIIS=  1040.
 NGot=   524288000 LenX=   105970886 LenY=   105912845
 Requested convergence on RMS density matrix=1.00D-08 within 128 cycles.
 Requested convergence on MAX density matrix=1.00D-06.
 Requested convergence on             energy=1.00D-06.
 No special actions if energy rises.

 Cycle   1  Pass 1  IDiag  1:
 E= -388.533173848842    
 DIIS: error= 5.21D-02 at cycle   1 NSaved=   1.
 NSaved= 1 IEnMin= 1 EnMin= -388.533173848842     IErMin= 1 ErrMin= 5.21D-02
 ErrMax= 5.21D-02  0.00D+00 EMaxC= 1.00D-01 BMatC= 8.07D-01 BMatP= 8.07D-01
 IDIUse=3 WtCom= 4.79D-01 WtEn= 5.21D-01
 Coeff-Com:  0.100D+01
 Coeff-En:   0.100D+01
 Coeff:      0.100D+01
 Gap=     0.508 Goal=   None    Shift=    0.000
 GapD=    0.508 DampG=2.000 DampE=0.500 DampFc=1.0000 IDamp=-1.
 RMSDP=4.00D-03 MaxDP=1.14D-01              OVMax= 1.33D-01

 Cycle   2  Pass 1  IDiag  1:
 E= -389.073872454184     Delta-E=       -0.540698605342 Rises=F Damp=F
 DIIS: error= 1.59D-02 at cycle   2 NSaved=   2.
 NSaved= 2 IEnMin= 2 EnMin= -389.073872454184     IErMin= 2 ErrMin= 1.59D-02
 ErrMax= 1.59D-02  0.00D+00 EMaxC= 1.00D-01 BMatC= 8.66D-02 BMatP= 8.07D-01
 IDIUse=3 WtCom= 8.41D-01 WtEn= 1.59D-01
 Coeff-Com:  0.183D+00 0.817D+00
 Coeff-En:   0.000D+00 0.100D+01
 Coeff:      0.154D+00 0.846D+00
 Gap=     0.549 Goal=   None    Shift=    0.000
 RMSDP=1.63D-03 MaxDP=3.04D-02 DE=-5.41D-01 OVMax= 4.61D-02

 Cycle   3  Pass 1  IDiag  1:
 E= -389.151432388375     Delta-E=       -0.077559934191 Rises=F Damp=F
 DIIS: error= 3.43D-03 at cycle   3 NSaved=   3.
 NSaved= 3 IEnMin= 3 EnMin= -389.151432388375     IErMin= 3 ErrMin= 3.43D-03
 ErrMax= 3.43D-03  0.00D+00 EMaxC= 1.00D-01 BMatC= 3.14D-03 BMatP= 8.66D-02
 IDIUse=3 WtCom= 9.66D-01 WtEn= 3.43D-02
 Coeff-Com: -0.245D-01 0.106D+00 0.919D+00
 Coeff-En:   0.000D+00 0.000D+00 0.100D+01
 Coeff:     -0.236D-01 0.102D+00 0.921D+00
 Gap=     0.499 Goal=   None    Shift=    0.000
 RMSDP=2.59D-04 MaxDP=7.14D-03 DE=-7.76D-02 OVMax= 1.01D-02

 Cycle   4  Pass 1  IDiag  1:
 E= -389.155058166874     Delta-E=       -0.003625778499 Rises=F Damp=F
 DIIS: error= 5.31D-04 at cycle   4 NSaved=   4.
 NSaved= 4 IEnMin= 4 EnMin= -389.155058166874     IErMin= 4 ErrMin= 5.31D-04
 ErrMax= 5.31D-04  0.00D+00 EMaxC= 1.00D-01 BMatC= 9.29D-05 BMatP= 3.14D-03
 IDIUse=3 WtCom= 9.95D-01 WtEn= 5.31D-03
 Coeff-Com: -0.424D-02-0.188D-02 0.951D-01 0.911D+00
 Coeff-En:   0.000D+00 0.000D+00 0.000D+00 0.100D+01
 Coeff:     -0.422D-02-0.187D-02 0.946D-01 0.912D+00
 Gap=     0.499 Goal=   None    Shift=    0.000
 RMSDP=7.39D-05 MaxDP=1.49D-03 DE=-3.63D-03 OVMax= 3.14D-03

 Cycle   5  Pass 1  IDiag  1:
 E= -389.155182536226     Delta-E=       -0.000124369352 Rises=F Damp=F
 DIIS: error= 1.63D-04 at cycle   5 NSaved=   5.
 NSaved= 5 IEnMin= 5 EnMin= -389.155182536226     IErMin= 5 ErrMin= 1.63D-04
 ErrMax= 1.63D-04  0.00D+00 EMaxC= 1.00D-01 BMatC= 1.60D-05 BMatP= 9.29D-05
 IDIUse=3 WtCom= 9.98D-01 WtEn= 1.63D-03
 Coeff-Com:  0.241D-02-0.152D-01-0.102D+00 0.176D+00 0.939D+00
 Coeff-En:   0.000D+00 0.000D+00 0.000D+00 0.000D+00 0.100D+01
 Coeff:      0.241D-02-0.152D-01-0.102D+00 0.175D+00 0.939D+00
 Gap=     0.500 Goal=   None    Shift=    0.000
 RMSDP=3.00D-05 MaxDP=6.57D-04 DE=-1.24D-04 OVMax= 9.23D-04

 Cycle   6  Pass 1  IDiag  1:
 E= -389.155204027425     Delta-E=       -0.000021491199 Rises=F Damp=F
 DIIS: error= 3.58D-05 at cycle   6 NSaved=   6.
 NSaved= 6 IEnMin= 6 EnMin= -389.155204027425     IErMin= 6 ErrMin= 3.58D-05
 ErrMax= 3.58D-05  0.00D+00 EMaxC= 1.00D-01 BMatC= 5.50D-07 BMatP= 1.60D-05
 IDIUse=1 WtCom= 1.00D+00 WtEn= 0.00D+00
 Coeff-Com:  0.720D-03-0.335D-02-0.261D-01-0.433D-02 0.177D+00 0.856D+00
 Coeff:      0.720D-03-0.335D-02-0.261D-01-0.433D-02 0.177D+00 0.856D+00
 Gap=     0.500 Goal=   None    Shift=    0.000
 RMSDP=5.30D-06 MaxDP=1.61D-04 DE=-2.15D-05 OVMax= 3.23D-04

 Cycle   7  Pass 1  IDiag  1:
 E= -389.155204868688     Delta-E=       -0.000000841263 Rises=F Damp=F
 DIIS: error= 1.03D-05 at cycle   7 NSaved=   7.
 NSaved= 7 IEnMin= 7 EnMin= -389.155204868688     IErMin= 7 ErrMin= 1.03D-05
 ErrMax= 1.03D-05  0.00D+00 EMaxC= 1.00D-01 BMatC= 5.44D-08 BMatP= 5.50D-07
 IDIUse=1 WtCom= 1.00D+00 WtEn= 0.00D+00
 Coeff-Com: -0.494D-04 0.463D-03 0.301D-02-0.105D-01-0.468D-01 0.145D+00
 Coeff-Com:  0.909D+00
 Coeff:     -0.494D-04 0.463D-03 0.301D-02-0.105D-01-0.468D-01 0.145D+00
 Coeff:      0.909D+00
 Gap=     0.500 Goal=   None    Shift=    0.000
 RMSDP=1.71D-06 MaxDP=4.10D-05 DE=-8.41D-07 OVMax= 8.42D-05

 Cycle   8  Pass 1  IDiag  1:
 E= -389.155204957589     Delta-E=       -0.000000088901 Rises=F Damp=F
 DIIS: error= 3.51D-06 at cycle   8 NSaved=   8.
 NSaved= 8 IEnMin= 8 EnMin= -389.155204957589     IErMin= 8 ErrMin= 3.51D-06
 ErrMax= 3.51D-06  0.00D+00 EMaxC= 1.00D-01 BMatC= 5.09D-09 BMatP= 5.44D-08
 IDIUse=1 WtCom= 1.00D+00 WtEn= 0.00D+00
 Coeff-Com: -0.581D-04 0.249D-03 0.208D-02 0.315D-02-0.171D-01-0.803D-01
 Coeff-Com: -0.123D+00 0.121D+01
 Coeff:     -0.581D-04 0.249D-03 0.208D-02 0.315D-02-0.171D-01-0.803D-01
 Coeff:     -0.123D+00 0.121D+01
 Gap=     0.500 Goal=   None    Shift=    0.000
 RMSDP=7.85D-07 MaxDP=2.40D-05 DE=-8.89D-08 OVMax= 5.80D-05

 Cycle   9  Pass 1  IDiag  1:
 E= -389.155204973444     Delta-E=       -0.000000015855 Rises=F Damp=F
 DIIS: error= 1.46D-06 at cycle   9 NSaved=   9.
 NSaved= 9 IEnMin= 9 EnMin= -389.155204973444     IErMin= 9 ErrMin= 1.46D-06
 ErrMax= 1.46D-06  0.00D+00 EMaxC= 1.00D-01 BMatC= 7.38D-10 BMatP= 5.09D-09
 IDIUse=1 WtCom= 1.00D+00 WtEn= 0.00D+00
 Coeff-Com:  0.927D-05-0.689D-04-0.479D-03 0.144D-02 0.385D-02 0.783D-04
 Coeff-Com: -0.865D-01-0.120D+00 0.120D+01
 Coeff:      0.927D-05-0.689D-04-0.479D-03 0.144D-02 0.385D-02 0.783D-04
 Coeff:     -0.865D-01-0.120D+00 0.120D+01
 Gap=     0.500 Goal=   None    Shift=    0.000
 RMSDP=2.99D-07 MaxDP=1.24D-05 DE=-1.59D-08 OVMax= 2.71D-05

 Cycle  10  Pass 1  IDiag  1:
 E= -389.155204975858     Delta-E=       -0.000000002414 Rises=F Damp=F
 DIIS: error= 3.97D-07 at cycle  10 NSaved=  10.
 NSaved=10 IEnMin=10 EnMin= -389.155204975858     IErMin=10 ErrMin= 3.97D-07
 ErrMax= 3.97D-07  0.00D+00 EMaxC= 1.00D-01 BMatC= 1.21D-10 BMatP= 7.38D-10
 IDIUse=1 WtCom= 1.00D+00 WtEn= 0.00D+00
 Coeff-Com:  0.952D-05-0.464D-04-0.369D-03-0.135D-03 0.233D-02 0.142D-01
 Coeff-Com:  0.594D-02-0.211D+00 0.144D+00 0.105D+01
 Coeff:      0.952D-05-0.464D-04-0.369D-03-0.135D-03 0.233D-02 0.142D-01
 Coeff:      0.594D-02-0.211D+00 0.144D+00 0.105D+01
 Gap=     0.500 Goal=   None    Shift=    0.000
 RMSDP=1.24D-07 MaxDP=3.06D-06 DE=-2.41D-09 OVMax= 9.88D-06

 Cycle  11  Pass 1  IDiag  1:
 E= -389.155204976184     Delta-E=       -0.000000000326 Rises=F Damp=F
 DIIS: error= 1.55D-07 at cycle  11 NSaved=  11.
 NSaved=11 IEnMin=11 EnMin= -389.155204976184     IErMin=11 ErrMin= 1.55D-07
 ErrMax= 1.55D-07  0.00D+00 EMaxC= 1.00D-01 BMatC= 9.54D-12 BMatP= 1.21D-10
 IDIUse=1 WtCom= 1.00D+00 WtEn= 0.00D+00
 Coeff-Com:  0.396D-06 0.831D-06 0.950D-06-0.149D-03-0.305D-03 0.278D-02
 Coeff-Com:  0.110D-01-0.153D-01-0.107D+00 0.164D+00 0.945D+00
 Coeff:      0.396D-06 0.831D-06 0.950D-06-0.149D-03-0.305D-03 0.278D-02
 Coeff:      0.110D-01-0.153D-01-0.107D+00 0.164D+00 0.945D+00
 Gap=     0.500 Goal=   None    Shift=    0.000
 RMSDP=2.77D-08 MaxDP=1.16D-06 DE=-3.26D-10 OVMax= 2.51D-06

 Cycle  12  Pass 1  IDiag  1:
 E= -389.155204976200     Delta-E=       -0.000000000016 Rises=F Damp=F
 DIIS: error= 3.64D-08 at cycle  12 NSaved=  12.
 NSaved=12 IEnMin=12 EnMin= -389.155204976200     IErMin=12 ErrMin= 3.64D-08
 ErrMax= 3.64D-08  0.00D+00 EMaxC= 1.00D-01 BMatC= 1.17D-12 BMatP= 9.54D-12
 IDIUse=1 WtCom= 1.00D+00 WtEn= 0.00D+00
 Coeff-Com: -0.102D-05 0.547D-05 0.429D-04 0.325D-05-0.342D-03-0.126D-02
 Coeff-Com:  0.366D-03 0.217D-01-0.321D-01-0.113D+00 0.981D-01 0.103D+01
 Coeff:     -0.102D-05 0.547D-05 0.429D-04 0.325D-05-0.342D-03-0.126D-02
 Coeff:      0.366D-03 0.217D-01-0.321D-01-0.113D+00 0.981D-01 0.103D+01
 Gap=     0.500 Goal=   None    Shift=    0.000
 RMSDP=1.18D-08 MaxDP=3.33D-07 DE=-1.58D-11 OVMax= 8.46D-07

 Cycle  13  Pass 1  IDiag  1:
 E= -389.155204976212     Delta-E=       -0.000000000012 Rises=F Damp=F
 DIIS: error= 1.06D-08 at cycle  13 NSaved=  13.
 NSaved=13 IEnMin=13 EnMin= -389.155204976212     IErMin=13 ErrMin= 1.06D-08
 ErrMax= 1.06D-08  0.00D+00 EMaxC= 1.00D-01 BMatC= 5.47D-14 BMatP= 1.17D-12
 IDIUse=1 WtCom= 1.00D+00 WtEn= 0.00D+00
 Coeff-Com: -0.122D-06 0.462D-06 0.389D-05 0.136D-04-0.170D-04-0.298D-03
 Coeff-Com: -0.849D-03 0.352D-02 0.516D-02-0.212D-01-0.612D-01 0.111D+00
 Coeff-Com:  0.964D+00
 Coeff:     -0.122D-06 0.462D-06 0.389D-05 0.136D-04-0.170D-04-0.298D-03
 Coeff:     -0.849D-03 0.352D-02 0.516D-02-0.212D-01-0.612D-01 0.111D+00
 Coeff:      0.964D+00
 Gap=     0.500 Goal=   None    Shift=    0.000
 RMSDP=2.13D-09 MaxDP=7.03D-08 DE=-1.24D-11 OVMax= 1.05D-07

 SCF Done:  E(RHF) =  -389.155204976     A.U. after   13 cycles
            NFock= 13  Conv=0.21D-08     -V/T= 2.0014
 KE= 3.886260934220D+02 PE=-1.937507408840D+03 EE= 6.432893860444D+02
 Leave Link  502 at Fri Sep 17 15:16:21 2021, MaxMem=   524288000 cpu:              18.5 elap:              19.6
 (Enter /opt/gaussian/g16_legacy/l801.exe)
 ExpMin= 1.61D-01 ExpMax= 3.05D+03 ExpMxC= 4.57D+02 IAcc=3 IRadAn=         5 AccDes= 0.00D+00
 HarFok:  IExCor=  205 AccDes= 0.00D+00 IRadAn=         5 IDoV=-2 UseB2=F ITyADJ=14
 ICtDFT= 12500011 ScaDFX=  1.000000  1.000000  1.000000  1.000000
 Largest valence mixing into a core orbital is  1.98D-04
 Largest core mixing into a valence orbital is  3.52D-05
 Range of M.O.s used for correlation:    11   240
 NBasis=   240 NAE=    39 NBE=    39 NFC=    10 NFV=     0
 NROrb=    230 NOA=    29 NOB=    29 NVA=   201 NVB=   201
 Leave Link  801 at Fri Sep 17 15:16:23 2021, MaxMem=   524288000 cpu:               0.9 elap:               1.8
 (Enter /opt/gaussian/g16_legacy/l906.exe)
 Frozen-core derivative calculation, NFC=  10 NFV=   0.
 FulOut=F Deriv=T AODrv=T NAtomX=    28
   MMem=          88  MDisk=          29 MDiskD=          29
  W3Min=     2246400 MinDsk=     2795480 NBas6D=         240
 NBas2D=       29244    NTT=       28920    LW2=     2040000
    MDV=   523626386 MDiskM=       30186 NBas2p=       24383
 Fully direct method using O(ONN) memory.
 IMap=   1   2   3   4   5   6   7   8   9  10  11  12  13  14  15  16  17  18  19  20
 IMap=  21  22  23  24  25  26  27  28  29  30  31  32  33  34  35  36  37  38  39
 JobTyp=1 Pass  1:  I=  11 to  39 NPSUse=  1 ParTrn=F ParDer=F DoDerP=T.
 Spin components of T(2) and E(2):
     alpha-alpha T2 =       0.5715155382D-01 E2=     -0.1638030277D+00
     alpha-beta  T2 =       0.3618151304D+00 E2=     -0.1089338096D+01
     beta-beta   T2 =       0.5715155382D-01 E2=     -0.1638030277D+00
 The integrals were generated   1 times.
 ANorm=    0.1214956064D+01
 E2 =    -0.1416944152D+01 EUMP2 =    -0.39057214912777D+03
 Leave Link  906 at Fri Sep 17 15:18:39 2021, MaxMem=   524288000 cpu:             135.4 elap:             135.6
 (Enter /opt/gaussian/g16_legacy/l1002.exe)
 Minotr:  Closed shell wavefunction.
          Computing MP2/KS-MP2 derivatives.
          Using Z-Vector for PSCF gradient.
          Skipping F1 and S1 gradient terms here.
          IDoAtm=1111111111111111111111111111
          Frozen-core window.
          Direct CPHF calculation.
          Differentiating once with respect to electric field.
                with respect to dipole field.
          Differentiating once with respect to nuclear coordinates.
          Requested convergence is 1.0D-10 RMS, and 1.0D-09 maximum.
          NewPWx=F KeepS1=T KeepF1=T KeepIn=T MapXYZ=F SortEE=F KeepMc=T.
 Keep R1 ints in memory in canonical form, NReq=425201067.
 FoFCou: FMM=F IPFlag=           0 FMFlag=           0 FMFlg1=           0
         NFxFlg=           0 DoJE=F BraDBF=F KetDBF=F FulRan=T
         wScrn=  0.000000 ICntrl=       600 IOpCl=  0 I1Cent=           0 NGrid=           0
         NMat0=    1 NMatS0=  28920 NMatT0=    0 NMatD0=    1 NMtDS0=    0 NMtDT0=    0
 Symmetry not used in FoFCou.
 Two-electron integral symmetry not used.
          MDV=     524288000 using IRadAn=       5.
          Solving linear equations separately, MaxMat=       0.
          There are     1 degrees of freedom in the 1st order CPHF.  IDoFFX=0 NUNeed=     1.
 LinEq1:  Iter=  0 NonCon=     1 RMS=2.55D-03 Max=3.76D-02 NDo=     1
 AX will form     1 AO Fock derivatives at one time.
 LinEq1:  Iter=  1 NonCon=     1 RMS=6.90D-04 Max=9.75D-03 NDo=     1
 LinEq1:  Iter=  2 NonCon=     1 RMS=1.61D-04 Max=4.14D-03 NDo=     1
 LinEq1:  Iter=  3 NonCon=     1 RMS=4.31D-05 Max=5.07D-04 NDo=     1
 LinEq1:  Iter=  4 NonCon=     1 RMS=1.99D-05 Max=8.55D-04 NDo=     1
 LinEq1:  Iter=  5 NonCon=     1 RMS=5.06D-06 Max=8.26D-05 NDo=     1
 LinEq1:  Iter=  6 NonCon=     1 RMS=1.63D-06 Max=2.68D-05 NDo=     1
 LinEq1:  Iter=  7 NonCon=     1 RMS=4.13D-07 Max=4.19D-06 NDo=     1
 LinEq1:  Iter=  8 NonCon=     1 RMS=1.01D-07 Max=1.86D-06 NDo=     1
 LinEq1:  Iter=  9 NonCon=     1 RMS=2.33D-08 Max=6.32D-07 NDo=     1
 LinEq1:  Iter= 10 NonCon=     1 RMS=6.42D-09 Max=1.62D-07 NDo=     1
 LinEq1:  Iter= 11 NonCon=     1 RMS=1.89D-09 Max=3.62D-08 NDo=     1
 LinEq1:  Iter= 12 NonCon=     1 RMS=4.08D-10 Max=6.17D-09 NDo=     1
 LinEq1:  Iter= 13 NonCon=     1 RMS=1.01D-10 Max=1.27D-09 NDo=     1
 LinEq1:  Iter= 14 NonCon=     1 RMS=3.39D-11 Max=1.02D-09 NDo=     1
 LinEq1:  Iter= 15 NonCon=     0 RMS=9.79D-12 Max=1.43D-10 NDo=     1
 Linear equations converged to 1.000D-10 1.000D-09 after    15 iterations.
 End of Minotr F.D. properties file   721 does not exist.
 End of Minotr F.D. properties file   722 does not exist.
 End of Minotr F.D. properties file   788 does not exist.
 Leave Link 1002 at Fri Sep 17 15:18:58 2021, MaxMem=   524288000 cpu:              19.0 elap:              19.2
 (Enter /opt/gaussian/g16_legacy/l601.exe)
 Copying SCF densities to generalized density rwf, IOpCl= 0 IROHF=0.

 **********************************************************************

            Population analysis using the SCF density.

 **********************************************************************

 Orbital symmetries:
       Occupied  (A) (A) (A) (A) (A) (A) (A) (A) (A) (A) (A) (A)
                 (A) (A) (A) (A) (A) (A) (A) (A) (A) (A) (A) (A)
                 (A) (A) (A) (A) (A) (A) (A) (A) (A) (A) (A) (A)
                 (A) (A) (A)
       Virtual   (A) (A) (A) (A) (A) (A) (A) (A) (A) (A) (A) (A)
                 (A) (A) (A) (A) (A) (A) (A) (A) (A) (A) (A) (A)
                 (A) (A) (A) (A) (A) (A) (A) (A) (A) (A) (A) (A)
                 (A) (A) (A) (A) (A) (A) (A) (A) (A) (A) (A) (A)
                 (A) (A) (A) (A) (A) (A) (A) (A) (A) (A) (A) (A)
                 (A) (A) (A) (A) (A) (A) (A) (A) (A) (A) (A) (A)
                 (A) (A) (A) (A) (A) (A) (A) (A) (A) (A) (A) (A)
                 (A) (A) (A) (A) (A) (A) (A) (A) (A) (A) (A) (A)
                 (A) (A) (A) (A) (A) (A) (A) (A) (A) (A) (A) (A)
                 (A) (A) (A) (A) (A) (A) (A) (A) (A) (A) (A) (A)
                 (A) (A) (A) (A) (A) (A) (A) (A) (A) (A) (A) (A)
                 (A) (A) (A) (A) (A) (A) (A) (A) (A) (A) (A) (A)
                 (A) (A) (A) (A) (A) (A) (A) (A) (A) (A) (A) (A)
                 (A) (A) (A) (A) (A) (A) (A) (A) (A) (A) (A) (A)
                 (A) (A) (A) (A) (A) (A) (A) (A) (A) (A) (A) (A)
                 (A) (A) (A) (A) (A) (A) (A) (A) (A) (A) (A) (A)
                 (A) (A) (A) (A) (A) (A) (A) (A) (A)
 The electronic state is 1-A.
 Alpha  occ. eigenvalues --  -11.23060 -11.22505 -11.22000 -11.21921 -11.21882
 Alpha  occ. eigenvalues --  -11.21649 -11.21554 -11.21485 -11.21457 -11.21438
 Alpha  occ. eigenvalues --   -1.10624  -1.08327  -1.01911  -0.98013  -0.93647
 Alpha  occ. eigenvalues --   -0.91775  -0.86754  -0.82686  -0.70599  -0.69342
 Alpha  occ. eigenvalues --   -0.64585  -0.61545  -0.60101  -0.59031  -0.58088
 Alpha  occ. eigenvalues --   -0.56803  -0.55367  -0.55150  -0.53550  -0.51981
 Alpha  occ. eigenvalues --   -0.51717  -0.51320  -0.50592  -0.49228  -0.48276
 Alpha  occ. eigenvalues --   -0.46014  -0.44272  -0.33355  -0.31525
 Alpha virt. eigenvalues --    0.18456   0.19494   0.22038   0.24453   0.25183
 Alpha virt. eigenvalues --    0.27141   0.28395   0.28931   0.30250   0.30504
 Alpha virt. eigenvalues --    0.31237   0.32116   0.33136   0.33436   0.34031
 Alpha virt. eigenvalues --    0.35677   0.35774   0.36970   0.38998   0.40648
 Alpha virt. eigenvalues --    0.41064   0.42593   0.43322   0.44191   0.45150
 Alpha virt. eigenvalues --    0.51684   0.54046   0.61169   0.62445   0.70139
 Alpha virt. eigenvalues --    0.71102   0.71887   0.74280   0.76417   0.76616
 Alpha virt. eigenvalues --    0.76878   0.78795   0.79455   0.81139   0.82035
 Alpha virt. eigenvalues --    0.83811   0.85655   0.88079   0.91266   0.92027
 Alpha virt. eigenvalues --    0.92896   0.95178   0.97057   0.98263   0.99207
 Alpha virt. eigenvalues --    0.99752   1.00202   1.02302   1.03926   1.06181
 Alpha virt. eigenvalues --    1.07863   1.08640   1.08810   1.11199   1.12390
 Alpha virt. eigenvalues --    1.12560   1.13433   1.14583   1.14926   1.15819
 Alpha virt. eigenvalues --    1.16163   1.16403   1.18224   1.18706   1.20091
 Alpha virt. eigenvalues --    1.20661   1.22067   1.22854   1.25018   1.27540
 Alpha virt. eigenvalues --    1.34172   1.40672   1.41850   1.43740   1.45170
 Alpha virt. eigenvalues --    1.47559   1.53472   1.56256   1.56979   1.58249
 Alpha virt. eigenvalues --    1.59849   1.62719   1.65797   1.69519   1.70790
 Alpha virt. eigenvalues --    1.75330   1.82527   1.92036   1.92196   1.95500
 Alpha virt. eigenvalues --    1.98631   2.01125   2.02852   2.04184   2.08704
 Alpha virt. eigenvalues --    2.09245   2.11124   2.11379   2.13103   2.14508
 Alpha virt. eigenvalues --    2.15427   2.17690   2.19726   2.23578   2.27384
 Alpha virt. eigenvalues --    2.28340   2.29994   2.32200   2.34973   2.35568
 Alpha virt. eigenvalues --    2.35645   2.35782   2.39323   2.39853   2.40350
 Alpha virt. eigenvalues --    2.41278   2.41829   2.43037   2.45163   2.45385
 Alpha virt. eigenvalues --    2.47034   2.48340   2.49337   2.50338   2.54525
 Alpha virt. eigenvalues --    2.56586   2.57721   2.61275   2.62183   2.64354
 Alpha virt. eigenvalues --    2.66341   2.67158   2.72032   2.72995   2.73747
 Alpha virt. eigenvalues --    2.75722   2.77699   2.81092   2.82804   2.85162
 Alpha virt. eigenvalues --    2.87729   2.89155   2.91919   2.93443   2.94434
 Alpha virt. eigenvalues --    2.97093   2.99037   3.01162   3.02603   3.05103
 Alpha virt. eigenvalues --    3.05821   3.06631   3.08505   3.13018   3.15940
 Alpha virt. eigenvalues --    3.17140   3.18163   3.19614   3.20679   3.21266
 Alpha virt. eigenvalues --    3.23192   3.24411   3.26463   3.27247   3.36665
 Alpha virt. eigenvalues --    3.39075   3.44608   3.45618   3.55556   3.57290
 Alpha virt. eigenvalues --    3.58699   3.61059   3.66893   3.73952   3.78202
 Alpha virt. eigenvalues --    3.78870   3.80509   3.81329   3.82331   3.82839
 Alpha virt. eigenvalues --    3.84211   3.85750   3.87659   3.89512   3.91174
 Alpha virt. eigenvalues --    3.95896   4.59095   4.62634   4.74429   4.82816
 Alpha virt. eigenvalues --    4.88837   4.92669   4.93352   5.07550   5.10288
 Alpha virt. eigenvalues --    5.16869
          Condensed to atoms (all electrons):
               1          2          3          4          5          6
     1  C    5.001798   0.412354   0.413519   0.340278  -0.058751   0.003676
     2  H    0.412354   0.571709  -0.030229  -0.040540   0.003238  -0.000103
     3  H    0.413519  -0.030229   0.588447  -0.045056  -0.004690   0.000081
     4  C    0.340278  -0.040540  -0.045056   4.955127   0.349330  -0.041411
     5  C   -0.058751   0.003238  -0.004690   0.349330   4.896468   0.406179
     6  H    0.003676  -0.000103   0.000081  -0.041411   0.406179   0.571033
     7  H   -0.000532  -0.000030  -0.000276  -0.045822   0.400281  -0.028078
     8  H   -0.003553  -0.000016   0.002571  -0.043072   0.397376  -0.027604
     9  C   -0.044037  -0.002233   0.001918   0.698838  -0.045938  -0.002739
    10  H    0.003079   0.000060  -0.000114  -0.036531  -0.006483   0.002222
    11  C   -0.007062  -0.002135   0.000138  -0.050686   0.003425   0.000137
    12  H    0.000232  -0.000034  -0.000010   0.000593  -0.000100  -0.000009
    13  H   -0.001828  -0.001333   0.000004  -0.000419   0.000092   0.000004
    14  H    0.000227   0.000172   0.000028  -0.001412  -0.000116  -0.000004
    15  C   -0.000101  -0.000042  -0.000000   0.000002  -0.000000   0.000000
    16  H   -0.000004   0.000001   0.000000   0.000000  -0.000000   0.000000
    17  H    0.000022  -0.000005  -0.000001  -0.000000   0.000000  -0.000000
    18  H   -0.000003  -0.000002   0.000002   0.000000  -0.000000   0.000000
    19  C   -0.003608   0.001046   0.000615   0.000006  -0.000002   0.000000
    20  C    0.000597   0.000160  -0.000016  -0.000017  -0.000000  -0.000000
    21  H    0.000077  -0.000076  -0.000001  -0.000002   0.000000  -0.000000
    22  H   -0.000041   0.000014   0.000000   0.000001  -0.000000   0.000000
    23  H   -0.000053  -0.000052  -0.000012  -0.000027  -0.000000   0.000000
    24  C   -0.063069  -0.000808  -0.000608   0.006131  -0.000158   0.000003
    25  H    0.000005   0.000213   0.001003  -0.000155   0.000010  -0.000000
    26  C    0.326227  -0.039859  -0.044587  -0.057372  -0.000188  -0.000097
    27  H   -0.045138   0.004291  -0.002603  -0.001852  -0.000392  -0.000025
    28  H   -0.040284  -0.002145   0.004201  -0.001438   0.000317  -0.000010
               7          8          9         10         11         12
     1  C   -0.000532  -0.003553  -0.044037   0.003079  -0.007062   0.000232
     2  H   -0.000030  -0.000016  -0.002233   0.000060  -0.002135  -0.000034
     3  H   -0.000276   0.002571   0.001918  -0.000114   0.000138  -0.000010
     4  C   -0.045822  -0.043072   0.698838  -0.036531  -0.050686   0.000593
     5  C    0.400281   0.397376  -0.045938  -0.006483   0.003425  -0.000100
     6  H   -0.028078  -0.027604  -0.002739   0.002222   0.000137  -0.000009
     7  H    0.594780  -0.035010  -0.001034   0.000123  -0.000100   0.000015
     8  H   -0.035010   0.593640  -0.000427   0.000248  -0.000114  -0.000004
     9  C   -0.001034  -0.000427   4.939979   0.404875   0.337722  -0.042842
    10  H    0.000123   0.000248   0.404875   0.559347  -0.043632  -0.002646
    11  C   -0.000100  -0.000114   0.337722  -0.043632   4.906205   0.403002
    12  H    0.000015  -0.000004  -0.042842  -0.002646   0.403002   0.586810
    13  H    0.000000  -0.000001  -0.041936   0.003314   0.408022  -0.030015
    14  H   -0.000005   0.000021  -0.044358  -0.000221   0.400030  -0.033275
    15  C   -0.000000  -0.000000  -0.000000   0.000000  -0.000000  -0.000000
    16  H    0.000000   0.000000   0.000000   0.000000  -0.000000  -0.000000
    17  H    0.000000  -0.000000  -0.000000  -0.000000   0.000000   0.000000
    18  H   -0.000000  -0.000000  -0.000000   0.000000   0.000000  -0.000000
    19  C    0.000000   0.000000   0.000001   0.000000   0.000007   0.000000
    20  C   -0.000000  -0.000000   0.000010  -0.000000  -0.000097  -0.000004
    21  H    0.000000  -0.000000   0.000000  -0.000000  -0.000003   0.000000
    22  H    0.000000   0.000000   0.000000   0.000000   0.000002  -0.000000
    23  H    0.000000  -0.000000  -0.000032   0.000000   0.000040   0.000042
    24  C   -0.000086   0.000001   0.000070   0.000002  -0.000032  -0.000004
    25  H    0.000012  -0.000002  -0.000002  -0.000000   0.000000   0.000000
    26  C    0.000811   0.000027  -0.004366  -0.000116   0.000690   0.000091
    27  H   -0.000187   0.000093   0.000515   0.000004  -0.000030   0.000000
    28  H   -0.000009   0.000012   0.001214  -0.000044   0.000070  -0.000079
              13         14         15         16         17         18
     1  C   -0.001828   0.000227  -0.000101  -0.000004   0.000022  -0.000003
     2  H   -0.001333   0.000172  -0.000042   0.000001  -0.000005  -0.000002
     3  H    0.000004   0.000028  -0.000000   0.000000  -0.000001   0.000002
     4  C   -0.000419  -0.001412   0.000002   0.000000  -0.000000   0.000000
     5  C    0.000092  -0.000116  -0.000000  -0.000000   0.000000  -0.000000
     6  H    0.000004  -0.000004   0.000000   0.000000  -0.000000   0.000000
     7  H    0.000000  -0.000005  -0.000000   0.000000   0.000000  -0.000000
     8  H   -0.000001   0.000021  -0.000000   0.000000  -0.000000  -0.000000
     9  C   -0.041936  -0.044358  -0.000000   0.000000  -0.000000  -0.000000
    10  H    0.003314  -0.000221   0.000000   0.000000  -0.000000   0.000000
    11  C    0.408022   0.400030  -0.000000  -0.000000   0.000000   0.000000
    12  H   -0.030015  -0.033275  -0.000000  -0.000000   0.000000  -0.000000
    13  H    0.573884  -0.026854   0.000000  -0.000000  -0.000000  -0.000000
    14  H   -0.026854   0.584238   0.000000   0.000000  -0.000000  -0.000000
    15  C    0.000000   0.000000   4.903234   0.399265   0.396994   0.405428
    16  H   -0.000000   0.000000   0.399265   0.593071  -0.034893  -0.027573
    17  H   -0.000000  -0.000000   0.396994  -0.034893   0.594274  -0.027370
    18  H   -0.000000  -0.000000   0.405428  -0.027573  -0.027370   0.568048
    19  C   -0.000013  -0.000000   0.352288  -0.045760  -0.044303  -0.040396
    20  C    0.000010   0.000002  -0.065379  -0.001105  -0.002140   0.003696
    21  H    0.000034  -0.000000  -0.003431  -0.000507   0.002847   0.000010
    22  H   -0.000006   0.000000  -0.001684   0.002552  -0.000371  -0.000079
    23  H    0.000570  -0.000008   0.003678  -0.000023  -0.000072  -0.000108
    24  C    0.000003   0.000002  -0.044862  -0.001137  -0.000546  -0.002386
    25  H   -0.000001   0.000000  -0.006750   0.000150   0.000235   0.002177
    26  C   -0.000212  -0.000050   0.003152  -0.000124  -0.000086   0.000146
    27  H   -0.000008  -0.000000  -0.000102   0.000012  -0.000002  -0.000011
    28  H   -0.000251   0.000023   0.000070   0.000004  -0.000004   0.000006
              19         20         21         22         23         24
     1  C   -0.003608   0.000597   0.000077  -0.000041  -0.000053  -0.063069
     2  H    0.001046   0.000160  -0.000076   0.000014  -0.000052  -0.000808
     3  H    0.000615  -0.000016  -0.000001   0.000000  -0.000012  -0.000608
     4  C    0.000006  -0.000017  -0.000002   0.000001  -0.000027   0.006131
     5  C   -0.000002  -0.000000   0.000000  -0.000000  -0.000000  -0.000158
     6  H    0.000000  -0.000000  -0.000000   0.000000   0.000000   0.000003
     7  H    0.000000  -0.000000   0.000000   0.000000   0.000000  -0.000086
     8  H    0.000000  -0.000000  -0.000000   0.000000  -0.000000   0.000001
     9  C    0.000001   0.000010   0.000000   0.000000  -0.000032   0.000070
    10  H    0.000000  -0.000000  -0.000000   0.000000   0.000000   0.000002
    11  C    0.000007  -0.000097  -0.000003   0.000002   0.000040  -0.000032
    12  H    0.000000  -0.000004   0.000000  -0.000000   0.000042  -0.000004
    13  H   -0.000013   0.000010   0.000034  -0.000006   0.000570   0.000003
    14  H   -0.000000   0.000002  -0.000000   0.000000  -0.000008   0.000002
    15  C    0.352288  -0.065379  -0.003431  -0.001684   0.003678  -0.044862
    16  H   -0.045760  -0.001105  -0.000507   0.002552  -0.000023  -0.001137
    17  H   -0.044303  -0.002140   0.002847  -0.000371  -0.000072  -0.000546
    18  H   -0.040396   0.003696   0.000010  -0.000079  -0.000108  -0.002386
    19  C    4.918229   0.348398  -0.043936  -0.043816  -0.037060   0.698174
    20  C    0.348398   4.909214   0.402440   0.398281   0.406153  -0.043325
    21  H   -0.043936   0.402440   0.586224  -0.033098  -0.030011   0.000450
    22  H   -0.043816   0.398281  -0.033098   0.582499  -0.026279  -0.000843
    23  H   -0.037060   0.406153  -0.030011  -0.026279   0.568187  -0.002871
    24  C    0.698174  -0.043325   0.000450  -0.000843  -0.002871   4.961527
    25  H   -0.036144   0.003365  -0.000110  -0.000126   0.000059   0.402014
    26  C   -0.048264  -0.007532   0.000286   0.000188  -0.001944   0.339920
    27  H    0.000915   0.000169  -0.000012   0.000032   0.000031  -0.043346
    28  H    0.000823  -0.002064  -0.000043   0.000056  -0.001169  -0.043816
              25         26         27         28
     1  C    0.000005   0.326227  -0.045138  -0.040284
     2  H    0.000213  -0.039859   0.004291  -0.002145
     3  H    0.001003  -0.044587  -0.002603   0.004201
     4  C   -0.000155  -0.057372  -0.001852  -0.001438
     5  C    0.000010  -0.000188  -0.000392   0.000317
     6  H   -0.000000  -0.000097  -0.000025  -0.000010
     7  H    0.000012   0.000811  -0.000187  -0.000009
     8  H   -0.000002   0.000027   0.000093   0.000012
     9  C   -0.000002  -0.004366   0.000515   0.001214
    10  H   -0.000000  -0.000116   0.000004  -0.000044
    11  C    0.000000   0.000690  -0.000030   0.000070
    12  H    0.000000   0.000091   0.000000  -0.000079
    13  H   -0.000001  -0.000212  -0.000008  -0.000251
    14  H    0.000000  -0.000050  -0.000000   0.000023
    15  C   -0.006750   0.003152  -0.000102   0.000070
    16  H    0.000150  -0.000124   0.000012   0.000004
    17  H    0.000235  -0.000086  -0.000002  -0.000004
    18  H    0.002177   0.000146  -0.000011   0.000006
    19  C   -0.036144  -0.048264   0.000915   0.000823
    20  C    0.003365  -0.007532   0.000169  -0.002064
    21  H   -0.000110   0.000286  -0.000012  -0.000043
    22  H   -0.000126   0.000188   0.000032   0.000056
    23  H    0.000059  -0.001944   0.000031  -0.001169
    24  C    0.402014   0.339920  -0.043346  -0.043816
    25  H    0.558525  -0.041270  -0.003485   0.003231
    26  C   -0.041270   4.982311   0.413771   0.414881
    27  H   -0.003485   0.413771   0.588495  -0.029597
    28  H    0.003231   0.414881  -0.029597   0.571208
 Mulliken charges:
               1
     1  C   -0.234023
     2  H    0.126384
     3  H    0.115676
     4  C    0.015507
     5  C   -0.339895
     6  H    0.116745
     7  H    0.115147
     8  H    0.115814
     9  C   -0.155198
    10  H    0.116512
    11  C   -0.355598
    12  H    0.118236
    13  H    0.116939
    14  H    0.121560
    15  C   -0.341760
    16  H    0.116071
    17  H    0.115422
    18  H    0.118415
    19  C    0.022803
    20  C   -0.350813
    21  H    0.118865
    22  H    0.122719
    23  H    0.120961
    24  C   -0.160402
    25  H    0.117047
    26  C   -0.236434
    27  H    0.118466
    28  H    0.124836
 Sum of Mulliken charges =  -0.00000
 Mulliken charges with hydrogens summed into heavy atoms:
               1
     1  C    0.008036
     4  C    0.015507
     5  C    0.007811
     9  C   -0.038686
    11  C    0.001137
    15  C    0.008148
    19  C    0.022803
    20  C    0.011732
    24  C   -0.043355
    26  C    0.006867
 Electronic spatial extent (au):  <R**2>=           2423.6408
 Charge=              0.0000 electrons
 Dipole moment (field-independent basis, Debye):
    X=              0.2949    Y=              0.1261    Z=             -0.0060  Tot=              0.3208
 Quadrupole moment (field-independent basis, Debye-Ang):
   XX=            -64.5122   YY=            -63.6040   ZZ=            -67.0535
   XY=              0.6106   XZ=              0.8620   YZ=             -0.4857
 Traceless Quadrupole moment (field-independent basis, Debye-Ang):
   XX=              0.5444   YY=              1.4525   ZZ=             -1.9969
   XY=              0.6106   XZ=              0.8620   YZ=             -0.4857
 Octapole moment (field-independent basis, Debye-Ang**2):
  XXX=              1.3707  YYY=             -2.7197  ZZZ=              0.1852  XYY=             -0.5687
  XXY=              4.5358  XXZ=             -2.6527  XZZ=              1.5770  YZZ=              1.2281
  YYZ=              1.3701  XYZ=             -0.7517
 Hexadecapole moment (field-independent basis, Debye-Ang**3):
 XXXX=          -2492.2702 YYYY=           -696.1165 ZZZZ=           -174.8241 XXXY=             -2.3561
 XXXZ=             11.9300 YYYX=             -9.3573 YYYZ=             -3.0552 ZZZX=             -0.8381
 ZZZY=             -0.0665 XXYY=           -530.4705 XXZZ=           -456.3085 YYZZ=           -139.1701
 XXYZ=             -4.2416 YYXZ=              3.1921 ZZXY=              4.7013
 N-N= 5.164367243977D+02 E-N=-1.937507408953D+03  KE= 3.886260934220D+02
 No NMR shielding tensors so no spin-rotation constants.
 Leave Link  601 at Fri Sep 17 15:18:58 2021, MaxMem=   524288000 cpu:               0.2 elap:               0.4
 (Enter /opt/gaussian/g16_legacy/l701.exe)
 ... and contract with generalized density number  2.
 Compute integral first derivatives.
 Leave Link  701 at Fri Sep 17 15:18:59 2021, MaxMem=   524288000 cpu:               0.2 elap:               0.2
 (Enter /opt/gaussian/g16_legacy/l702.exe)
 L702 exits ... SP integral derivatives will be done elsewhere.
 Leave Link  702 at Fri Sep 17 15:18:59 2021, MaxMem=   524288000 cpu:               0.0 elap:               0.0
 (Enter /opt/gaussian/g16_legacy/l703.exe)
 Integral derivatives from FoFJK, PRISM(SPDF).
 Compute integral first derivatives, UseDBF=F ICtDFT=           0.
 Calling FoFJK, ICntrl=  10002127 FMM=F ISym2X=0 I1Cent= 0 IOpClX= 0 NMat=1 NMatS=1 NMatT=0.
 FoFJK:  IHMeth= 1 ICntrl=10002127 DoSepK=F KAlg= 0 I1Cent=           0 FoldK=F
 IRaf=         0 NMat=       1 IRICut=       1 DoRegI=T DoRafI=F ISym2E= 0 IDoP0=0 IntGTp=1.
 FoFCou: FMM=F IPFlag=           0 FMFlag=      100000 FMFlg1=         800
         NFxFlg=           0 DoJE=F BraDBF=F KetDBF=F FulRan=T
         wScrn=  0.000000 ICntrl=  10002127 IOpCl=  0 I1Cent=           0 NGrid=           0
         NMat0=    1 NMatS0=      1 NMatT0=    0 NMatD0=    1 NMtDS0=    0 NMtDT0=    0
 Symmetry not used in FoFCou.
 Leave Link  703 at Fri Sep 17 15:19:17 2021, MaxMem=   524288000 cpu:              18.7 elap:              18.7
 (Enter /opt/gaussian/g16_legacy/l716.exe)
 Dipole        = 9.11425212D-02 6.68755616D-02-4.78755986D-03
 ***** Axes restored to original set *****
 -------------------------------------------------------------------
 Center     Atomic                   Forces (Hartrees/Bohr)
 Number     Number              X              Y              Z
 -------------------------------------------------------------------
      1        6           0.007225215   -0.001172565    0.006139569
      2        1          -0.000870239   -0.002965776   -0.003540183
      3        1          -0.000604168   -0.003404103   -0.001558529
      4        6           0.004777517    0.004110218    0.001491949
      5        6           0.002688975   -0.001685231   -0.000203068
      6        1          -0.003875308    0.000375801    0.001284917
      7        1           0.001053810    0.003160424    0.000601598
      8        1          -0.001538907   -0.001971900   -0.002298916
      9        6          -0.002011267   -0.000639662   -0.003149317
     10        1          -0.001982022    0.002045834   -0.002142476
     11        6          -0.002046136   -0.000773435    0.001543149
     12        1           0.000225152    0.002627879    0.002262056
     13        1           0.003112286    0.000900924   -0.000827766
     14        1          -0.001977236   -0.002779218    0.000382210
     15        6           0.000538370    0.002883240   -0.001775267
     16        1           0.000185508    0.001655902    0.002929824
     17        1          -0.002104939   -0.002136239   -0.001831448
     18        1           0.001631507   -0.003508133    0.001977375
     19        6           0.001404828    0.005062915   -0.000839328
     20        6           0.003990808   -0.002150132    0.000533994
     21        1          -0.001609162   -0.001325270   -0.003029092
     22        1           0.000094154    0.001128135    0.002901639
     23        1          -0.002148803    0.001579004   -0.002173259
     24        6           0.001045680   -0.003317291   -0.003926069
     25        1          -0.002091772   -0.000985061    0.002517281
     26        6          -0.007668156   -0.000759436   -0.002068206
     27        1           0.001697927    0.000609235    0.002886827
     28        1           0.000856379    0.003433940    0.001910535
 -------------------------------------------------------------------
 Cartesian Forces:  Max     0.007668156 RMS     0.002577479
 Leave Link  716 at Fri Sep 17 15:19:17 2021, MaxMem=   524288000 cpu:               0.0 elap:               0.1
 (Enter /opt/gaussian/g16_legacy/l103.exe)

 GradGradGradGradGradGradGradGradGradGradGradGradGradGradGradGradGradGrad
 Berny optimization.
 FormGI is forming the generalized inverse of G from B-inverse, IUseBI=4.
 Internal  Forces:  Max     0.004893260 RMS     0.001918162
 Search for a local minimum.
 Step number   1 out of a maximum of  138
 All quantities printed in internal units (Hartrees-Bohrs-Radians)
 RMS Force = .19182D-02 SwitMx=.10000D-02 MixMth= 1
 Mixed Optimization -- RFO/linear search
 Second derivative matrix not updated -- first step.
 ITU=  0
     Eigenvalues ---    0.00343   0.00570   0.00671   0.00680   0.00692
     Eigenvalues ---    0.00714   0.00817   0.01219   0.01287   0.01568
     Eigenvalues ---    0.01641   0.02779   0.02784   0.04019   0.04138
     Eigenvalues ---    0.05349   0.05399   0.06978   0.07035   0.07091
     Eigenvalues ---    0.07093   0.07270   0.07300   0.07347   0.07505
     Eigenvalues ---    0.09277   0.09361   0.12767   0.12842   0.15999
     Eigenvalues ---    0.15999   0.16000   0.16000   0.16000   0.16000
     Eigenvalues ---    0.16000   0.16000   0.16000   0.16000   0.16000
     Eigenvalues ---    0.16000   0.16000   0.16000   0.21858   0.21866
     Eigenvalues ---    0.22000   0.22000   0.24994   0.24997   0.24998
     Eigenvalues ---    0.24999   0.29244   0.30870   0.31637   0.31705
     Eigenvalues ---    0.31798   0.31972   0.32788   0.33872   0.33970
     Eigenvalues ---    0.34058   0.34191   0.34222   0.34229   0.34246
     Eigenvalues ---    0.34246   0.34251   0.34256   0.34257   0.34272
     Eigenvalues ---    0.34296   0.34338   0.34552   0.34558   0.34797
     Eigenvalues ---    0.34850   0.55490   0.55577
 RFO step:  Lambda=-2.96277330D-03 EMin= 3.43274670D-03
 Linear search not attempted -- first point.
 Iteration  1 RMS(Cart)=  0.03968871 RMS(Int)=  0.00072334
 Iteration  2 RMS(Cart)=  0.00093545 RMS(Int)=  0.00016660
 Iteration  3 RMS(Cart)=  0.00000043 RMS(Int)=  0.00016660
 ITry= 1 IFail=0 DXMaxC= 1.84D-01 DCOld= 1.00D+10 DXMaxT= 3.00D-01 DXLimC= 3.00D+00 Rises=F
 Variable       Old X    -DE/DX   Delta X   Delta X   Delta X     New X
                                 (Linear)    (Quad)   (Total)
    R1        2.07232  -0.00334   0.00000  -0.00972  -0.00972   2.06260
    R2        2.07546  -0.00275   0.00000  -0.00805  -0.00805   2.06741
    R3        2.86261  -0.00353   0.00000  -0.01131  -0.01131   2.85129
    R4        2.89497   0.00175   0.00000   0.00591   0.00591   2.90088
    R5        2.84813  -0.00042   0.00000  -0.00133  -0.00133   2.84680
    R6        2.54699  -0.00400   0.00000  -0.00717  -0.00717   2.53982
    R7        2.06957  -0.00371   0.00000  -0.01074  -0.01074   2.05882
    R8        2.06834  -0.00179   0.00000  -0.00519  -0.00519   2.06315
    R9        2.06917  -0.00218   0.00000  -0.00632  -0.00632   2.06285
   R10        2.05919  -0.00220   0.00000  -0.00627  -0.00627   2.05292
   R11        2.82726   0.00306   0.00000   0.00926   0.00926   2.83651
   R12        2.06898  -0.00262   0.00000  -0.00757  -0.00757   2.06140
   R13        2.06398  -0.00288   0.00000  -0.00826  -0.00826   2.05572
   R14        2.06763  -0.00156   0.00000  -0.00450  -0.00450   2.06313
   R15        2.06916  -0.00200   0.00000  -0.00580  -0.00580   2.06336
   R16        2.06901  -0.00195   0.00000  -0.00565  -0.00565   2.06336
   R17        2.06945  -0.00395   0.00000  -0.01145  -0.01145   2.05800
   R18        2.84687  -0.00078   0.00000  -0.00244  -0.00244   2.84443
   R19        2.84196  -0.00048   0.00000  -0.00148  -0.00148   2.84048
   R20        2.54623  -0.00324   0.00000  -0.00580  -0.00580   2.54043
   R21        2.07008  -0.00266   0.00000  -0.00770  -0.00770   2.06238
   R22        2.06873  -0.00182   0.00000  -0.00528  -0.00528   2.06345
   R23        2.06409  -0.00281   0.00000  -0.00806  -0.00806   2.05603
   R24        2.06005  -0.00198   0.00000  -0.00564  -0.00564   2.05442
   R25        2.84515  -0.00153   0.00000  -0.00476  -0.00476   2.84039
   R26        2.07381  -0.00239   0.00000  -0.00697  -0.00697   2.06683
   R27        2.06909  -0.00275   0.00000  -0.00797  -0.00797   2.06113
    A1        1.82992   0.00207   0.00000   0.02246   0.02229   1.85222
    A2        1.93004   0.00043   0.00000   0.00935   0.00938   1.93942
    A3        1.91836  -0.00278   0.00000  -0.02019  -0.02023   1.89813
    A4        1.90265  -0.00069   0.00000  -0.00273  -0.00273   1.89992
    A5        1.92020  -0.00196   0.00000  -0.01738  -0.01741   1.90279
    A6        1.95832   0.00284   0.00000   0.00917   0.00921   1.96753
    A7        2.00831   0.00237   0.00000   0.00968   0.00911   2.01742
    A8        2.17075  -0.00489   0.00000  -0.01898  -0.01951   2.15123
    A9        2.10394   0.00254   0.00000   0.01041   0.00983   2.11378
   A10        1.95927  -0.00262   0.00000  -0.01309  -0.01305   1.94622
   A11        1.92797   0.00229   0.00000   0.01225   0.01227   1.94025
   A12        1.92480   0.00166   0.00000   0.00901   0.00903   1.93384
   A13        1.87704   0.00054   0.00000   0.00560   0.00564   1.88268
   A14        1.87763   0.00109   0.00000   0.01013   0.01016   1.88778
   A15        1.89498  -0.00308   0.00000  -0.02475  -0.02474   1.87023
   A16        2.06971  -0.00194   0.00000  -0.01339  -0.01341   2.05630
   A17        2.22508  -0.00187   0.00000  -0.00835  -0.00837   2.21671
   A18        1.98826   0.00381   0.00000   0.02191   0.02189   2.01016
   A19        1.90998   0.00238   0.00000   0.01563   0.01557   1.92555
   A20        1.98123  -0.00299   0.00000  -0.01843  -0.01834   1.96289
   A21        1.91721   0.00395   0.00000   0.02332   0.02328   1.94049
   A22        1.87271   0.00052   0.00000   0.00492   0.00499   1.87770
   A23        1.88719  -0.00310   0.00000  -0.01888  -0.01905   1.86814
   A24        1.89291  -0.00095   0.00000  -0.00764  -0.00754   1.88537
   A25        1.89495  -0.00314   0.00000  -0.02548  -0.02547   1.86948
   A26        1.87870   0.00093   0.00000   0.00802   0.00805   1.88675
   A27        1.92351   0.00173   0.00000   0.00870   0.00872   1.93223
   A28        1.87919   0.00092   0.00000   0.00937   0.00940   1.88860
   A29        1.92492   0.00221   0.00000   0.01236   0.01238   1.93730
   A30        1.96056  -0.00277   0.00000  -0.01381  -0.01377   1.94679
   A31        1.99468   0.00146   0.00000   0.00582   0.00579   2.00048
   A32        2.10580   0.00183   0.00000   0.00727   0.00724   2.11305
   A33        2.18265  -0.00329   0.00000  -0.01297  -0.01299   2.16966
   A34        1.92072   0.00001   0.00000  -0.00080  -0.00079   1.91993
   A35        1.92171   0.00229   0.00000   0.01158   0.01160   1.93332
   A36        1.97970  -0.00222   0.00000  -0.01019  -0.01017   1.96954
   A37        1.89068  -0.00240   0.00000  -0.02162  -0.02160   1.86908
   A38        1.86371   0.00200   0.00000   0.01696   0.01697   1.88069
   A39        1.88441   0.00024   0.00000   0.00329   0.00332   1.88773
   A40        2.06712  -0.00167   0.00000  -0.01180  -0.01220   2.05492
   A41        2.22715  -0.00226   0.00000  -0.00995  -0.01036   2.21679
   A42        1.98879   0.00394   0.00000   0.02254   0.02211   2.01090
   A43        1.94447   0.00331   0.00000   0.01368   0.01371   1.95818
   A44        1.92087  -0.00238   0.00000  -0.01473  -0.01493   1.90595
   A45        1.92614  -0.00265   0.00000  -0.02502  -0.02509   1.90105
   A46        1.88060   0.00060   0.00000   0.01705   0.01710   1.89769
   A47        1.94651  -0.00052   0.00000  -0.00235  -0.00231   1.94420
   A48        1.84192   0.00155   0.00000   0.01189   0.01163   1.85355
    D1       -2.64266  -0.00174   0.00000  -0.05217  -0.05196  -2.69461
    D2        0.47837  -0.00076   0.00000   0.01020   0.00997   0.48834
    D3       -0.63961   0.00059   0.00000  -0.02156  -0.02131  -0.66092
    D4        2.48142   0.00157   0.00000   0.04081   0.04061   2.52203
[...]
                 (A) (A) (A) (A) (A) (A) (A) (A) (A) (A) (A) (A)
                 (A) (A) (A) (A) (A) (A) (A) (A) (A) (A) (A) (A)
                 (A) (A) (A) (A) (A) (A) (A) (A) (A) (A) (A) (A)
                 (A) (A) (A) (A) (A) (A) (A) (A) (A) (A) (A) (A)
                 (A) (A) (A) (A) (A) (A) (A) (A) (A) (A) (A) (A)
                 (A) (A) (A) (A) (A) (A) (A) (A) (A) (A) (A) (A)
                 (A) (A) (A) (A) (A) (A) (A) (A) (A) (A) (A) (A)
                 (A) (A) (A) (A) (A) (A) (A) (A) (A) (A) (A) (A)
                 (A) (A) (A) (A) (A) (A) (A) (A) (A) (A) (A) (A)
                 (A) (A) (A) (A) (A) (A) (A) (A) (A) (A) (A) (A)
                 (A) (A) (A) (A) (A) (A) (A) (A) (A) (A) (A) (A)
                 (A) (A) (A) (A) (A) (A) (A) (A) (A)
 The electronic state is 1-A.
 Alpha  occ. eigenvalues --  -11.23020 -11.22460 -11.21868 -11.21730 -11.21712
 Alpha  occ. eigenvalues --  -11.21539 -11.21506 -11.21436 -11.21417 -11.21348
 Alpha  occ. eigenvalues --   -1.10821  -1.08492  -1.01823  -0.98143  -0.93838
 Alpha  occ. eigenvalues --   -0.91939  -0.86963  -0.82855  -0.70494  -0.69519
 Alpha  occ. eigenvalues --   -0.64988  -0.61512  -0.60591  -0.58878  -0.58366
 Alpha  occ. eigenvalues --   -0.56774  -0.55298  -0.54966  -0.53295  -0.52261
 Alpha  occ. eigenvalues --   -0.51859  -0.51173  -0.50832  -0.49581  -0.48519
 Alpha  occ. eigenvalues --   -0.46073  -0.44624  -0.33371  -0.31514
 Alpha virt. eigenvalues --    0.18142   0.19779   0.22152   0.24486   0.25192
 Alpha virt. eigenvalues --    0.27439   0.28535   0.28922   0.30318   0.30811
 Alpha virt. eigenvalues --    0.31477   0.32261   0.33202   0.33794   0.34383
 Alpha virt. eigenvalues --    0.35458   0.36114   0.36962   0.39185   0.40602
 Alpha virt. eigenvalues --    0.41328   0.42631   0.43685   0.44253   0.45395
 Alpha virt. eigenvalues --    0.51702   0.54378   0.61070   0.62576   0.70520
 Alpha virt. eigenvalues --    0.71073   0.72196   0.73768   0.76075   0.76177
 Alpha virt. eigenvalues --    0.76620   0.79010   0.79474   0.81070   0.82306
 Alpha virt. eigenvalues --    0.83713   0.85579   0.89117   0.91091   0.91343
 Alpha virt. eigenvalues --    0.92820   0.94745   0.97065   0.98284   0.98818
 Alpha virt. eigenvalues --    0.99710   1.00468   1.01911   1.03844   1.06577
 Alpha virt. eigenvalues --    1.08019   1.08221   1.09393   1.11664   1.12687
 Alpha virt. eigenvalues --    1.13026   1.13870   1.14856   1.15402   1.16045
 Alpha virt. eigenvalues --    1.16257   1.16619   1.18722   1.19116   1.20671
 Alpha virt. eigenvalues --    1.20953   1.23032   1.23885   1.25765   1.28153
 Alpha virt. eigenvalues --    1.34331   1.41722   1.42153   1.44890   1.46395
 Alpha virt. eigenvalues --    1.48456   1.54136   1.55360   1.57256   1.58165
 Alpha virt. eigenvalues --    1.61459   1.63397   1.66485   1.69046   1.69645
 Alpha virt. eigenvalues --    1.73917   1.82243   1.91111   1.93363   1.96231
 Alpha virt. eigenvalues --    1.98688   2.01467   2.02277   2.03942   2.08565
 Alpha virt. eigenvalues --    2.09706   2.10748   2.11744   2.13037   2.14903
 Alpha virt. eigenvalues --    2.15780   2.16940   2.19854   2.23666   2.28347
 Alpha virt. eigenvalues --    2.29590   2.30325   2.33235   2.35347   2.35688
 Alpha virt. eigenvalues --    2.35978   2.36098   2.38923   2.40264   2.41259
 Alpha virt. eigenvalues --    2.42195   2.43169   2.44154   2.45371   2.46084
 Alpha virt. eigenvalues --    2.47201   2.49167   2.49622   2.51174   2.54099
 Alpha virt. eigenvalues --    2.57315   2.58365   2.61888   2.63241   2.64107
 Alpha virt. eigenvalues --    2.67127   2.68175   2.71776   2.73352   2.73474
 Alpha virt. eigenvalues --    2.75815   2.77410   2.80796   2.82634   2.85354
 Alpha virt. eigenvalues --    2.87137   2.89441   2.92178   2.93739   2.94867
 Alpha virt. eigenvalues --    2.97869   2.99094   3.00960   3.02677   3.05807
 Alpha virt. eigenvalues --    3.06402   3.07703   3.09315   3.13762   3.17093
 Alpha virt. eigenvalues --    3.17589   3.19238   3.20046   3.21242   3.22334
 Alpha virt. eigenvalues --    3.24167   3.25050   3.26607   3.27420   3.37866
 Alpha virt. eigenvalues --    3.40355   3.46023   3.46902   3.56200   3.58183
 Alpha virt. eigenvalues --    3.59499   3.62406   3.67928   3.75494   3.78622
 Alpha virt. eigenvalues --    3.80005   3.81570   3.82569   3.83286   3.83898
 Alpha virt. eigenvalues --    3.84750   3.86481   3.87645   3.89820   3.91558
 Alpha virt. eigenvalues --    3.97645   4.59389   4.63170   4.74472   4.82572
 Alpha virt. eigenvalues --    4.88928   4.92582   4.93409   5.07840   5.10766
 Alpha virt. eigenvalues --    5.17766
          Condensed to atoms (all electrons):
               1          2          3          4          5          6
     1  C    5.004768   0.411714   0.414473   0.337355  -0.056085   0.003801
     2  H    0.411714   0.572983  -0.028296  -0.038988   0.003071  -0.000108
     3  H    0.414473  -0.028296   0.587507  -0.046308  -0.004587   0.000106
     4  C    0.337355  -0.038988  -0.046308   4.952603   0.351934  -0.042765
     5  C   -0.056085   0.003071  -0.004587   0.351934   4.891804   0.407087
     6  H    0.003801  -0.000108   0.000106  -0.042765   0.407087   0.568858
     7  H    0.000011  -0.000005  -0.000489  -0.045679   0.400946  -0.027466
     8  H   -0.003698  -0.000034   0.002378  -0.041506   0.397495  -0.026764
     9  C   -0.047991  -0.001860   0.002531   0.697840  -0.046054  -0.002890
    10  H    0.003272   0.000031  -0.000118  -0.037842  -0.006525   0.002385
    11  C   -0.007749  -0.002811   0.000160  -0.050271   0.003364   0.000132
    12  H    0.000310  -0.000067  -0.000013  -0.000247  -0.000095  -0.000006
    13  H   -0.001745  -0.001657   0.000030  -0.000691   0.000109   0.000005
    14  H    0.000152   0.000184   0.000017  -0.000627  -0.000106  -0.000006
    15  C   -0.000099  -0.000043  -0.000004   0.000001  -0.000000   0.000000
    16  H   -0.000005   0.000002   0.000000   0.000000  -0.000000   0.000000
    17  H    0.000024  -0.000007  -0.000002  -0.000000   0.000000  -0.000000
    18  H   -0.000003  -0.000002   0.000003   0.000000  -0.000000   0.000000
    19  C   -0.004325   0.001388   0.000787   0.000041  -0.000003   0.000000
    20  C    0.000587   0.000200  -0.000015  -0.000018  -0.000000  -0.000000
    21  H    0.000130  -0.000135  -0.000002  -0.000005   0.000000  -0.000000
    22  H   -0.000040   0.000022   0.000000   0.000001  -0.000000   0.000000
    23  H   -0.000302  -0.000131  -0.000016  -0.000011  -0.000000   0.000000
    24  C   -0.061827  -0.000504  -0.000900   0.006443  -0.000149   0.000004
    25  H    0.000175   0.000111   0.001011  -0.000152   0.000010  -0.000000
    26  C    0.332330  -0.041801  -0.046074  -0.055544  -0.000661  -0.000109
    27  H   -0.046841   0.004515  -0.001931  -0.002075  -0.000289  -0.000050
    28  H   -0.042369  -0.003118   0.004477  -0.001813   0.000243  -0.000005
               7          8          9         10         11         12
     1  C    0.000011  -0.003698  -0.047991   0.003272  -0.007749   0.000310
     2  H   -0.000005  -0.000034  -0.001860   0.000031  -0.002811  -0.000067
     3  H   -0.000489   0.002378   0.002531  -0.000118   0.000160  -0.000013
     4  C   -0.045679  -0.041506   0.697840  -0.037842  -0.050271  -0.000247
     5  C    0.400946   0.397495  -0.046054  -0.006525   0.003364  -0.000095
     6  H   -0.027466  -0.026764  -0.002890   0.002385   0.000132  -0.000006
     7  H    0.596034  -0.037541  -0.001011   0.000135  -0.000101   0.000017
     8  H   -0.037541   0.591921  -0.000373   0.000216  -0.000105  -0.000004
     9  C   -0.001011  -0.000373   4.938971   0.404494   0.340494  -0.041805
    10  H    0.000135   0.000216   0.404494   0.558671  -0.041278  -0.001264
    11  C   -0.000101  -0.000105   0.340494  -0.041278   4.900974   0.402169
    12  H    0.000017  -0.000004  -0.041805  -0.001264   0.402169   0.586720
    13  H   -0.000003   0.000002  -0.043903   0.003299   0.409079  -0.029956
    14  H   -0.000004   0.000017  -0.041523  -0.001122   0.401144  -0.035462
    15  C   -0.000000  -0.000000  -0.000000   0.000000  -0.000000  -0.000000
    16  H    0.000000   0.000000   0.000000   0.000000   0.000000  -0.000000
    17  H    0.000000  -0.000000   0.000000  -0.000000  -0.000000   0.000000
    18  H   -0.000000  -0.000000  -0.000000   0.000000   0.000000  -0.000000
    19  C    0.000000   0.000000  -0.000001   0.000000   0.000013   0.000001
    20  C   -0.000000   0.000000   0.000015  -0.000000  -0.000147  -0.000015
    21  H    0.000000  -0.000000   0.000000  -0.000000  -0.000009   0.000000
    22  H   -0.000000   0.000000   0.000000   0.000000   0.000003  -0.000000
    23  H    0.000000  -0.000000  -0.000045   0.000000   0.000074   0.000114
    24  C   -0.000111   0.000004   0.000114   0.000002  -0.000031  -0.000009
    25  H    0.000015  -0.000001  -0.000002  -0.000000   0.000000   0.000000
    26  C    0.000609   0.000086  -0.004911  -0.000113   0.000577   0.000163
    27  H    0.000197   0.000058   0.000760   0.000001  -0.000033  -0.000000
    28  H   -0.000015   0.000006   0.001406  -0.000046  -0.000082  -0.000140
              13         14         15         16         17         18
     1  C   -0.001745   0.000152  -0.000099  -0.000005   0.000024  -0.000003
     2  H   -0.001657   0.000184  -0.000043   0.000002  -0.000007  -0.000002
     3  H    0.000030   0.000017  -0.000004   0.000000  -0.000002   0.000003
     4  C   -0.000691  -0.000627   0.000001   0.000000  -0.000000   0.000000
     5  C    0.000109  -0.000106  -0.000000  -0.000000   0.000000  -0.000000
     6  H    0.000005  -0.000006   0.000000   0.000000  -0.000000   0.000000
     7  H   -0.000003  -0.000004  -0.000000   0.000000   0.000000  -0.000000
     8  H    0.000002   0.000017  -0.000000   0.000000  -0.000000  -0.000000
     9  C   -0.043903  -0.041523  -0.000000   0.000000   0.000000  -0.000000
    10  H    0.003299  -0.001122   0.000000   0.000000  -0.000000   0.000000
    11  C    0.409079   0.401144  -0.000000   0.000000  -0.000000   0.000000
    12  H   -0.029956  -0.035462  -0.000000  -0.000000   0.000000  -0.000000
    13  H    0.577164  -0.027132   0.000000  -0.000000  -0.000000  -0.000000
    14  H   -0.027132   0.583648   0.000000   0.000000  -0.000000  -0.000000
    15  C    0.000000   0.000000   4.900112   0.398811   0.398238   0.406218
    16  H   -0.000000   0.000000   0.398811   0.593607  -0.037806  -0.026549
    17  H   -0.000000  -0.000000   0.398238  -0.037806   0.594542  -0.026703
    18  H   -0.000000  -0.000000   0.406218  -0.026549  -0.026703   0.566018
    19  C   -0.000026  -0.000000   0.353753  -0.044274  -0.043899  -0.041639
    20  C   -0.000000   0.000004  -0.064931  -0.001201  -0.001975   0.003785
    21  H    0.000079  -0.000000  -0.002632  -0.000476   0.002756  -0.000032
    22  H   -0.000008   0.000000  -0.002223   0.002766  -0.000456  -0.000053
    23  H    0.000412  -0.000013   0.003725  -0.000031  -0.000068  -0.000113
    24  C    0.000026   0.000002  -0.044415  -0.001270  -0.000422  -0.002632
    25  H   -0.000002   0.000000  -0.006963   0.000187   0.000182   0.002335
    26  C   -0.000737  -0.000037   0.003126  -0.000131  -0.000068   0.000148
    27  H   -0.000010  -0.000000  -0.000094   0.000009  -0.000002  -0.000010
    28  H   -0.000475   0.000037   0.000051   0.000007  -0.000005   0.000007
              19         20         21         22         23         24
     1  C   -0.004325   0.000587   0.000130  -0.000040  -0.000302  -0.061827
     2  H    0.001388   0.000200  -0.000135   0.000022  -0.000131  -0.000504
     3  H    0.000787  -0.000015  -0.000002   0.000000  -0.000016  -0.000900
     4  C    0.000041  -0.000018  -0.000005   0.000001  -0.000011   0.006443
     5  C   -0.000003  -0.000000   0.000000  -0.000000  -0.000000  -0.000149
     6  H    0.000000  -0.000000  -0.000000   0.000000   0.000000   0.000004
     7  H    0.000000  -0.000000   0.000000  -0.000000   0.000000  -0.000111
     8  H    0.000000   0.000000  -0.000000   0.000000  -0.000000   0.000004
     9  C   -0.000001   0.000015   0.000000   0.000000  -0.000045   0.000114
    10  H    0.000000  -0.000000  -0.000000   0.000000   0.000000   0.000002
    11  C    0.000013  -0.000147  -0.000009   0.000003   0.000074  -0.000031
    12  H    0.000001  -0.000015   0.000000  -0.000000   0.000114  -0.000009
    13  H   -0.000026  -0.000000   0.000079  -0.000008   0.000412   0.000026
    14  H   -0.000000   0.000004  -0.000000   0.000000  -0.000013   0.000002
    15  C    0.353753  -0.064931  -0.002632  -0.002223   0.003725  -0.044415
    16  H   -0.044274  -0.001201  -0.000476   0.002766  -0.000031  -0.001270
    17  H   -0.043899  -0.001975   0.002756  -0.000456  -0.000068  -0.000422
    18  H   -0.041639   0.003785  -0.000032  -0.000053  -0.000113  -0.002632
    19  C    4.914192   0.350333  -0.043385  -0.043537  -0.037848   0.697734
    20  C    0.350333   4.907254   0.401208   0.399852   0.407154  -0.044248
    21  H   -0.043385   0.401208   0.587442  -0.035759  -0.028659  -0.000031
    22  H   -0.043537   0.399852  -0.035759   0.584669  -0.026060  -0.000365
    23  H   -0.037848   0.407154  -0.028659  -0.026060   0.568221  -0.003253
    24  C    0.697734  -0.044248  -0.000031  -0.000365  -0.003253   4.962747
    25  H   -0.038449   0.003528  -0.000121  -0.000121   0.000061   0.403391
    26  C   -0.050100  -0.008144   0.000367   0.000117  -0.002069   0.338699
    27  H    0.001583   0.000195  -0.000014   0.000021   0.000058  -0.041395
    28  H    0.000438  -0.002693  -0.000076   0.000113  -0.001675  -0.044060
              25         26         27         28
     1  C    0.000175   0.332330  -0.046841  -0.042369
     2  H    0.000111  -0.041801   0.004515  -0.003118
     3  H    0.001011  -0.046074  -0.001931   0.004477
     4  C   -0.000152  -0.055544  -0.002075  -0.001813
     5  C    0.000010  -0.000661  -0.000289   0.000243
     6  H   -0.000000  -0.000109  -0.000050  -0.000005
     7  H    0.000015   0.000609   0.000197  -0.000015
     8  H   -0.000001   0.000086   0.000058   0.000006
     9  C   -0.000002  -0.004911   0.000760   0.001406
    10  H   -0.000000  -0.000113   0.000001  -0.000046
    11  C    0.000000   0.000577  -0.000033  -0.000082
    12  H    0.000000   0.000163  -0.000000  -0.000140
    13  H   -0.000002  -0.000737  -0.000010  -0.000475
    14  H    0.000000  -0.000037  -0.000000   0.000037
    15  C   -0.006963   0.003126  -0.000094   0.000051
    16  H    0.000187  -0.000131   0.000009   0.000007
    17  H    0.000182  -0.000068  -0.000002  -0.000005
    18  H    0.002335   0.000148  -0.000010   0.000007
    19  C   -0.038449  -0.050100   0.001583   0.000438
    20  C    0.003528  -0.008144   0.000195  -0.002693
    21  H   -0.000121   0.000367  -0.000014  -0.000076
    22  H   -0.000121   0.000117   0.000021   0.000113
    23  H    0.000061  -0.002069   0.000058  -0.001675
    24  C    0.403391   0.338699  -0.041395  -0.044060
    25  H    0.557389  -0.039113  -0.003424   0.003152
    26  C   -0.039113   4.979543   0.413482   0.415850
    27  H   -0.003424   0.413482   0.585267  -0.028362
    28  H    0.003152   0.415850  -0.028362   0.575347
 Mulliken charges:
               1
     1  C   -0.236021
     2  H    0.125346
     3  H    0.115272
     4  C    0.018322
     5  C   -0.341505
     6  H    0.117792
     7  H    0.114461
     8  H    0.117845
     9  C   -0.154256
    10  H    0.115801
    11  C   -0.355567
    12  H    0.119588
    13  H    0.116140
    14  H    0.120830
    15  C   -0.342631
    16  H    0.116356
    17  H    0.115672
    18  H    0.119222
    19  C    0.027221
    20  C   -0.350727
    21  H    0.119352
    22  H    0.121058
    23  H    0.120474
    24  C   -0.163542
    25  H    0.116803
    26  C   -0.235486
    27  H    0.118380
    28  H    0.123802
 Sum of Mulliken charges =  -0.00000
 Mulliken charges with hydrogens summed into heavy atoms:
               1
     1  C    0.004596
     4  C    0.018322
     5  C    0.008593
     9  C   -0.038454
    11  C    0.000991
    15  C    0.008618
    19  C    0.027221
    20  C    0.010156
    24  C   -0.046740
    26  C    0.006696
 Electronic spatial extent (au):  <R**2>=           2384.0070
 Charge=             -0.0000 electrons
 Dipole moment (field-independent basis, Debye):
    X=              0.3027    Y=              0.1253    Z=              0.0460  Tot=              0.3308
 Quadrupole moment (field-independent basis, Debye-Ang):
   XX=            -64.3024   YY=            -63.2901   ZZ=            -67.3956
   XY=              0.7521   XZ=              1.2367   YZ=             -0.3487
 Traceless Quadrupole moment (field-independent basis, Debye-Ang):
   XX=              0.6937   YY=              1.7059   ZZ=             -2.3996
   XY=              0.7521   XZ=              1.2367   YZ=             -0.3487
 Octapole moment (field-independent basis, Debye-Ang**2):
  XXX=              2.6682  YYY=             -2.9989  ZZZ=              0.8999  XYY=             -0.6416
  XXY=              4.0909  XXZ=             -2.0918  XZZ=              1.2120  YZZ=              1.4955
  YYZ=              0.6111  XYZ=             -0.3641
 Hexadecapole moment (field-independent basis, Debye-Ang**3):
 XXXX=          -2435.7180 YYYY=           -693.4922 ZZZZ=           -166.6416 XXXY=              2.3047
 XXXZ=             14.7514 YYYX=            -11.0526 YYYZ=             -1.4215 ZZZX=              2.8119
 ZZZY=             -0.6410 XXYY=           -520.1249 XXZZ=           -449.2342 YYZZ=           -138.3649
 XXYZ=             -4.2785 YYXZ=              0.5785 ZZXY=              5.9188
 N-N= 5.190879542753D+02 E-N=-1.942888648051D+03  KE= 3.887471641830D+02
 No NMR shielding tensors so no spin-rotation constants.
 Leave Link  601 at Fri Sep 17 15:58:03 2021, MaxMem=   524288000 cpu:               0.2 elap:               0.2
 (Enter /opt/gaussian/g16_legacy/l9999.exe)
 1\1\GINC-TRUENO95\FOpt\RMP2-FC\6-31G(d,p)\C10H18\JRAMOS\17-Sep-2021\0\
 \#p opt mp2/6-31g(d,p)\\Conformer number 3452. Energy MM = 23.242 kcal
 /mol\\0,1\C,0.876168007,0.7786381759,-0.1532259783\H,0.544276065,0.824
 3863936,0.8851720452\H,0.8541679627,1.8065945918,-0.5264673593\C,2.279
 2711135,0.2369028896,-0.2623789262\C,3.0872541871,0.75793621,-1.419590
 5549\H,4.0588794317,0.2694625623,-1.481695346\H,2.5656856392,0.5962281
 826,-2.365578873\H,3.2495727558,1.8339549752,-1.32652422\C,2.783230705
 2,-0.6911222469,0.5723340158\H,3.7976382251,-1.0351834967,0.3902835632
 \C,2.092627083,-1.3177271958,1.745524187\H,2.0369724801,-2.4013722634,
 1.6258499142\H,1.0785058303,-0.9467839449,1.8756941367\H,2.6421305118,
 -1.1282962971,2.6696039444\C,-3.8367749596,0.9438307741,-0.1754364214\
 H,-4.6505477361,0.2449728433,-0.3819936408\H,-4.0702973171,1.429543189
 ,0.7746998202\H,-3.8328873848,1.703410872,-0.9556808871\C,-2.519163278
 4,0.2230115799,-0.0994863397\C,-2.4471919894,-0.8462039951,0.955246871
 9\H,-2.6646363054,-0.4207089873,1.9373402671\H,-3.1992933566,-1.616838
 5516,0.7718271294\H,-1.4735179133,-1.3269053749,1.0065162609\C,-1.5092
 502277,0.5382980061,-0.9322142812\H,-1.6771941639,1.3474320879,-1.6385
 638707\C,-0.1358144692,-0.0643117439,-0.9527313228\H,0.2082190753,-0.1
 461000494,-1.987232842\H,-0.1380299714,-1.0784491864,-0.5512912926\\Ve
 rsion=EM64L-G16RevA.03\State=1-A\HF=-389.1567535\MP2=-390.5738646\RMSD
 =5.132e-09\RMSF=3.185e-06\Dipole=-0.0959954,-0.0226589,0.0615379\PG=C0
 1 [X(C10H18)]\\@


 A CHEMICAL PHYSICIST MAKES PRECISE MEASUREMENTS ON IMPURE COMPOUNDS.
 A THEORETICAL PHYSICAL CHEMIST MAKES IMPRECISE
     MEASUREMENTS ON PURE COMPOUNDS.
 AN EXPERIMENTAL PHYSICAL CHEMIST MAKES IMPRECISE
     MEASUREMENTS ON IMPURE COMPOUNDS.
 Job cpu time:       0 days  0 hours 42 minutes  2.4 seconds.
 Elapsed time:       0 days  0 hours 42 minutes 10.0 seconds.
 File lengths (MBytes):  RWF=     32 Int=      0 D2E=      0 Chk=      7 Scr=      1
 Normal termination of Gaussian 16 at Fri Sep 17 15:58:03 2021.
