 Entering Gaussian System, Link 0=/opt/gaussian/g16_legacy/g16
 Input=01-IsoP_534_gaussian.com
 Output=01-IsoP_534_gaussian.log
 Initial command:
 /opt/gaussian/g16_legacy/l1.exe "/scratch-local/jramos/2661425/Gau-18772.inp" -scrdir="/scratch-local/jramos/2661425/"
 Entering Link 1 = /opt/gaussian/g16_legacy/l1.exe PID=     18773.
  
 Copyright (c) 1988,1990,1992,1993,1995,1998,2003,2009,2016,
            Gaussian, Inc.  All Rights Reserved.
  
 This is part of the Gaussian(R) 16 program.  It is based on
 the Gaussian(R) 09 system (copyright 2009, Gaussian, Inc.),
 the Gaussian(R) 03 system (copyright 2003, Gaussian, Inc.),
 the Gaussian(R) 98 system (copyright 1998, Gaussian, Inc.),
 the Gaussian(R) 94 system (copyright 1995, Gaussian, Inc.),
 the Gaussian 92(TM) system (copyright 1992, Gaussian, Inc.),
 the Gaussian 90(TM) system (copyright 1990, Gaussian, Inc.),
 the Gaussian 88(TM) system (copyright 1988, Gaussian, Inc.),
 the Gaussian 86(TM) system (copyright 1986, Carnegie Mellon
 University), and the Gaussian 82(TM) system (copyright 1983,
 Carnegie Mellon University). Gaussian is a federally registered
 trademark of Gaussian, Inc.
  
 This software contains proprietary and confidential information,
 including trade secrets, belonging to Gaussian, Inc.
  
 This software is provided under written license and may be
 used, copied, transmitted, or stored only in accord with that
 written license.
  
 The following legend is applicable only to US Government
 contracts under FAR:
  
                    RESTRICTED RIGHTS LEGEND
  
 Use, reproduction and disclosure by the US Government is
 subject to restrictions as set forth in subparagraphs (a)
 and (c) of the Commercial Computer Software - Restricted
 Rights clause in FAR 52.227-19.
  
 Gaussian, Inc.
 340 Quinnipiac St., Bldg. 40, Wallingford CT 06492
  
  
 ---------------------------------------------------------------
 Warning -- This program may not be used in any manner that
 competes with the business of Gaussian, Inc. or will provide
 assistance to any competitor of Gaussian, Inc.  The licensee
 of this program is prohibited from giving any competitor of
 Gaussian, Inc. access to this program.  By using this program,
 the user acknowledges that Gaussian, Inc. is engaged in the
 business of creating and licensing software in the field of
 computational chemistry and represents and warrants to the
 licensee that it is not a competitor of Gaussian, Inc. and that
 it will not use this program in any manner prohibited above.
 ---------------------------------------------------------------
  

 Cite this work as:
 Gaussian 16, Revision A.03,
 M. J. Frisch, G. W. Trucks, H. B. Schlegel, G. E. Scuseria, 
 M. A. Robb, J. R. Cheeseman, G. Scalmani, V. Barone, 
 G. A. Petersson, H. Nakatsuji, X. Li, M. Caricato, A. V. Marenich, 
 J. Bloino, B. G. Janesko, R. Gomperts, B. Mennucci, H. P. Hratchian, 
 J. V. Ortiz, A. F. Izmaylov, J. L. Sonnenberg, D. Williams-Young, 
 F. Ding, F. Lipparini, F. Egidi, J. Goings, B. Peng, A. Petrone, 
 T. Henderson, D. Ranasinghe, V. G. Zakrzewski, J. Gao, N. Rega, 
 G. Zheng, W. Liang, M. Hada, M. Ehara, K. Toyota, R. Fukuda, 
 J. Hasegawa, M. Ishida, T. Nakajima, Y. Honda, O. Kitao, H. Nakai, 
 T. Vreven, K. Throssell, J. A. Montgomery, Jr., J. E. Peralta, 
 F. Ogliaro, M. J. Bearpark, J. J. Heyd, E. N. Brothers, K. N. Kudin, 
 V. N. Staroverov, T. A. Keith, R. Kobayashi, J. Normand, 
 K. Raghavachari, A. P. Rendell, J. C. Burant, S. S. Iyengar, 
 J. Tomasi, M. Cossi, J. M. Millam, M. Klene, C. Adamo, R. Cammi, 
 J. W. Ochterski, R. L. Martin, K. Morokuma, O. Farkas, 
 J. B. Foresman, and D. J. Fox, Gaussian, Inc., Wallingford CT, 2016.
 
 ******************************************
 Gaussian 16:  EM64L-G16RevA.03 25-Dec-2016
                17-Sep-2021 
 ******************************************
 %chk=01-IsoP_534_gaussian.chk
 %nproc=1
 Will use up to    1 processors via shared memory.
 %mem=4000Mb
 ---------------------
 #p opt mp2/6-31g(d,p)
 ---------------------
 1/18=20,19=15,38=1/1,3;
 2/9=110,12=2,17=6,18=5,40=1/2;
 3/5=1,6=6,7=101,11=9,25=1,30=1,71=1/1,2,3;
 4//1;
 5/5=2,38=5/2;
 8/6=4,10=2/1;
 9/15=2,16=-3/6;
 10/5=1/2;
 6/7=2,8=2,9=2,10=2/1;
 7/12=2/1,2,3,16;
 1/18=20,19=15/3(2);
 2/9=110/2;
 99//99;
 2/9=110/2;
 3/5=1,6=6,7=101,11=9,25=1,30=1,71=1/1,2,3;
 4/5=5,16=3,69=1/1;
 5/5=2,38=5/2;
 8/6=4,10=2/1;
 9/15=2,16=-3/6;
 10/5=1/2;
 7/12=2/1,2,3,16;
 1/18=20,19=15/3(-8);
 2/9=110/2;
 6/7=2,8=2,9=2,10=2/1;
 99//99;
 Leave Link    1 at Fri Sep 17 15:59:26 2021, MaxMem=   524288000 cpu:               0.0 elap:               0.1
 (Enter /opt/gaussian/g16_legacy/l101.exe)
 -------------------------------------------------
 Conformer number 534. Energy MM = 23.287 kcal/mol
 -------------------------------------------------
 Symbolic Z-matrix:
 Charge =  0 Multiplicity = 1
 C                    -0.8269    0.5236   -0.0011 
 H                    -0.814     1.4126    0.6408 
 H                    -0.6199    0.9026   -1.011 
 C                    -2.1965   -0.1235    0.01 
 C                    -2.5547   -0.8782   -1.2448 
 H                    -3.5561   -1.3184   -1.1926 
 H                    -2.533    -0.2077   -2.1102 
 H                    -1.8448   -1.6932   -1.4177 
 C                    -3.0727   -0.0367    1.0304 
 H                    -4.0431   -0.5214    0.9265 
 C                    -2.8742    0.6461    2.3465 
 H                    -3.1129   -0.0495    3.1576 
 H                    -3.5479    1.5047    2.4251 
 H                    -1.8511    0.9933    2.507 
 C                     3.9216    0.8147   -0.2946 
 H                     4.7468    0.0958   -0.261 
 H                     3.951     1.3974    0.6321 
 H                     4.0942    1.5049   -1.1269 
 C                     2.611     0.0943   -0.4766 
 C                     2.5265   -0.7283   -1.7327 
 H                     1.5293   -1.1329   -1.9201 
 H                     3.2276   -1.5675   -1.6808 
 H                     2.7873   -0.1148   -2.6019 
 C                     1.6259    0.2204    0.4339 
 H                     1.797     0.8616    1.2988 
 C                     0.277    -0.4483    0.4277 
 H                     0.2751   -1.339    -0.2083 
 H                     0.0776   -0.8124    1.444 
 
 ITRead=  0  0  0  0  0  0  0  0  0  0  0  0  0  0  0  0  0  0  0  0
 ITRead=  0  0  0  0  0  0  0  0
 MicOpt= -1 -1 -1 -1 -1 -1 -1 -1 -1 -1 -1 -1 -1 -1 -1 -1 -1 -1 -1 -1
 MicOpt= -1 -1 -1 -1 -1 -1 -1 -1
 NAtoms=     28 NQM=       28 NQMF=       0 NMMI=      0 NMMIF=      0
                NMic=       0 NMicF=      0.
                    Isotopes and Nuclear Properties:
 (Nuclear quadrupole moments (NQMom) in fm**2, nuclear magnetic moments (NMagM)
  in nuclear magnetons)

  Atom         1           2           3           4           5           6           7           8           9          10
 IAtWgt=          12           1           1          12          12           1           1           1          12           1
 AtmWgt=  12.0000000   1.0078250   1.0078250  12.0000000  12.0000000   1.0078250   1.0078250   1.0078250  12.0000000   1.0078250
 NucSpn=           0           1           1           0           0           1           1           1           0           1
 AtZEff=  -0.0000000  -0.0000000  -0.0000000  -0.0000000  -0.0000000  -0.0000000  -0.0000000  -0.0000000  -0.0000000  -0.0000000
 NQMom=    0.0000000   0.0000000   0.0000000   0.0000000   0.0000000   0.0000000   0.0000000   0.0000000   0.0000000   0.0000000
 NMagM=    0.0000000   2.7928460   2.7928460   0.0000000   0.0000000   2.7928460   2.7928460   2.7928460   0.0000000   2.7928460
 AtZNuc=   6.0000000   1.0000000   1.0000000   6.0000000   6.0000000   1.0000000   1.0000000   1.0000000   6.0000000   1.0000000

  Atom        11          12          13          14          15          16          17          18          19          20
 IAtWgt=          12           1           1           1          12           1           1           1          12          12
 AtmWgt=  12.0000000   1.0078250   1.0078250   1.0078250  12.0000000   1.0078250   1.0078250   1.0078250  12.0000000  12.0000000
 NucSpn=           0           1           1           1           0           1           1           1           0           0
 AtZEff=  -0.0000000  -0.0000000  -0.0000000  -0.0000000  -0.0000000  -0.0000000  -0.0000000  -0.0000000  -0.0000000  -0.0000000
 NQMom=    0.0000000   0.0000000   0.0000000   0.0000000   0.0000000   0.0000000   0.0000000   0.0000000   0.0000000   0.0000000
 NMagM=    0.0000000   2.7928460   2.7928460   2.7928460   0.0000000   2.7928460   2.7928460   2.7928460   0.0000000   0.0000000
 AtZNuc=   6.0000000   1.0000000   1.0000000   1.0000000   6.0000000   1.0000000   1.0000000   1.0000000   6.0000000   6.0000000

  Atom        21          22          23          24          25          26          27          28
 IAtWgt=           1           1           1          12           1          12           1           1
 AtmWgt=   1.0078250   1.0078250   1.0078250  12.0000000   1.0078250  12.0000000   1.0078250   1.0078250
 NucSpn=           1           1           1           0           1           0           1           1
 AtZEff=  -0.0000000  -0.0000000  -0.0000000  -0.0000000  -0.0000000  -0.0000000  -0.0000000  -0.0000000
 NQMom=    0.0000000   0.0000000   0.0000000   0.0000000   0.0000000   0.0000000   0.0000000   0.0000000
 NMagM=    2.7928460   2.7928460   2.7928460   0.0000000   2.7928460   0.0000000   2.7928460   2.7928460
 AtZNuc=   1.0000000   1.0000000   1.0000000   6.0000000   1.0000000   6.0000000   1.0000000   1.0000000
 Leave Link  101 at Fri Sep 17 15:59:27 2021, MaxMem=   524288000 cpu:               0.1 elap:               0.1
 (Enter /opt/gaussian/g16_legacy/l103.exe)

 GradGradGradGradGradGradGradGradGradGradGradGradGradGradGradGradGradGrad
 Berny optimization.
 Initialization pass.
                           ----------------------------
                           !    Initial Parameters    !
                           ! (Angstroms and Degrees)  !
 --------------------------                            --------------------------
 ! Name  Definition              Value          Derivative Info.                !
 --------------------------------------------------------------------------------
 ! R1    R(1,2)                  1.0966         estimate D2E/DX2                !
 ! R2    R(1,3)                  1.0984         estimate D2E/DX2                !
 ! R3    R(1,4)                  1.5148         estimate D2E/DX2                !
 ! R4    R(1,26)                 1.532          estimate D2E/DX2                !
 ! R5    R(4,5)                  1.5074         estimate D2E/DX2                !
 ! R6    R(4,9)                  1.3478         estimate D2E/DX2                !
 ! R7    R(5,6)                  1.0951         estimate D2E/DX2                !
 ! R8    R(5,7)                  1.095          estimate D2E/DX2                !
 ! R9    R(5,8)                  1.0946         estimate D2E/DX2                !
 ! R10   R(9,10)                 1.0897         estimate D2E/DX2                !
 ! R11   R(9,11)                 1.4959         estimate D2E/DX2                !
 ! R12   R(11,12)                1.0949         estimate D2E/DX2                !
 ! R13   R(11,13)                1.0942         estimate D2E/DX2                !
 ! R14   R(11,14)                1.0923         estimate D2E/DX2                !
 ! R15   R(15,16)                1.0949         estimate D2E/DX2                !
 ! R16   R(15,17)                1.0951         estimate D2E/DX2                !
 ! R17   R(15,18)                1.0949         estimate D2E/DX2                !
 ! R18   R(15,19)                1.5066         estimate D2E/DX2                !
 ! R19   R(19,20)                1.5039         estimate D2E/DX2                !
 ! R20   R(19,24)                1.3473         estimate D2E/DX2                !
 ! R21   R(20,21)                1.0923         estimate D2E/DX2                !
 ! R22   R(20,22)                1.0948         estimate D2E/DX2                !
 ! R23   R(20,23)                1.0954         estimate D2E/DX2                !
 ! R24   R(24,25)                1.0902         estimate D2E/DX2                !
 ! R25   R(24,26)                1.5056         estimate D2E/DX2                !
 ! R26   R(26,27)                1.0945         estimate D2E/DX2                !
 ! R27   R(26,28)                1.0978         estimate D2E/DX2                !
 ! A1    A(2,1,3)              104.8483         estimate D2E/DX2                !
 ! A2    A(2,1,4)              110.65           estimate D2E/DX2                !
 ! A3    A(2,1,26)             109.9978         estimate D2E/DX2                !
 ! A4    A(3,1,4)              108.9376         estimate D2E/DX2                !
 ! A5    A(3,1,26)             109.9048         estimate D2E/DX2                !
 ! A6    A(4,1,26)             112.2364         estimate D2E/DX2                !
 ! A7    A(1,4,5)              114.9994         estimate D2E/DX2                !
 ! A8    A(1,4,9)              124.4597         estimate D2E/DX2                !
 ! A9    A(5,4,9)              120.5291         estimate D2E/DX2                !
 ! A10   A(4,5,6)              112.2623         estimate D2E/DX2                !
 ! A11   A(4,5,7)              110.2796         estimate D2E/DX2                !
 ! A12   A(4,5,8)              110.4965         estimate D2E/DX2                !
 ! A13   A(6,5,7)              107.5738         estimate D2E/DX2                !
 ! A14   A(6,5,8)              107.5352         estimate D2E/DX2                !
 ! A15   A(7,5,8)              108.557          estimate D2E/DX2                !
 ! A16   A(4,9,10)             118.5622         estimate D2E/DX2                !
 ! A17   A(4,9,11)             127.5339         estimate D2E/DX2                !
 ! A18   A(10,9,11)            113.8967         estimate D2E/DX2                !
 ! A19   A(9,11,12)            109.4421         estimate D2E/DX2                !
 ! A20   A(9,11,13)            109.8566         estimate D2E/DX2                !
 ! A21   A(9,11,14)            113.4947         estimate D2E/DX2                !
 ! A22   A(12,11,13)           108.1248         estimate D2E/DX2                !
 ! A23   A(12,11,14)           107.296          estimate D2E/DX2                !
 ! A24   A(13,11,14)           108.4655         estimate D2E/DX2                !
 ! A25   A(16,15,17)           107.6477         estimate D2E/DX2                !
 ! A26   A(16,15,18)           108.5658         estimate D2E/DX2                !
 ! A27   A(16,15,19)           110.2043         estimate D2E/DX2                !
 ! A28   A(17,15,18)           107.6746         estimate D2E/DX2                !
 ! A29   A(17,15,19)           112.3353         estimate D2E/DX2                !
 ! A30   A(18,15,19)           110.2868         estimate D2E/DX2                !
 ! A31   A(15,19,20)           114.2888         estimate D2E/DX2                !
 ! A32   A(15,19,24)           120.6403         estimate D2E/DX2                !
 ! A33   A(20,19,24)           125.0683         estimate D2E/DX2                !
 ! A34   A(19,20,21)           113.4026         estimate D2E/DX2                !
 ! A35   A(19,20,22)           110.1038         estimate D2E/DX2                !
 ! A36   A(19,20,23)           110.0621         estimate D2E/DX2                !
 ! A37   A(21,20,22)           107.989          estimate D2E/DX2                !
 ! A38   A(21,20,23)           106.7779         estimate D2E/DX2                !
 ! A39   A(22,20,23)           108.3289         estimate D2E/DX2                !
 ! A40   A(19,24,25)           118.4526         estimate D2E/DX2                !
 ! A41   A(19,24,26)           127.6408         estimate D2E/DX2                !
 ! A42   A(25,24,26)           113.8986         estimate D2E/DX2                !
 ! A43   A(1,26,24)            111.4052         estimate D2E/DX2                !
 ! A44   A(1,26,27)            110.6334         estimate D2E/DX2                !
 ! A45   A(1,26,28)            109.7939         estimate D2E/DX2                !
 ! A46   A(24,26,27)           111.4328         estimate D2E/DX2                !
 ! A47   A(24,26,28)           107.8321         estimate D2E/DX2                !
 ! A48   A(27,26,28)           105.5294         estimate D2E/DX2                !
 ! D1    D(2,1,4,5)            151.723          estimate D2E/DX2                !
 ! D2    D(2,1,4,9)            -27.0285         estimate D2E/DX2                !
 ! D3    D(3,1,4,5)             36.962          estimate D2E/DX2                !
 ! D4    D(3,1,4,9)           -141.7895         estimate D2E/DX2                !
 ! D5    D(26,1,4,5)           -84.9851         estimate D2E/DX2                !
 ! D6    D(26,1,4,9)            96.2634         estimate D2E/DX2                !
 ! D7    D(2,1,26,24)          -55.3179         estimate D2E/DX2                !
 ! D8    D(2,1,26,27)         -179.8584         estimate D2E/DX2                !
 ! D9    D(2,1,26,28)           64.0655         estimate D2E/DX2                !
 ! D10   D(3,1,26,24)           59.6306         estimate D2E/DX2                !
 ! D11   D(3,1,26,27)          -64.9099         estimate D2E/DX2                !
 ! D12   D(3,1,26,28)          179.014          estimate D2E/DX2                !
 ! D13   D(4,1,26,24)         -178.9751         estimate D2E/DX2                !
 ! D14   D(4,1,26,27)           56.4843         estimate D2E/DX2                !
 ! D15   D(4,1,26,28)          -59.5918         estimate D2E/DX2                !
 ! D16   D(1,4,5,6)           -179.4159         estimate D2E/DX2                !
 ! D17   D(1,4,5,7)            -59.477          estimate D2E/DX2                !
 ! D18   D(1,4,5,8)             60.5452         estimate D2E/DX2                !
 ! D19   D(9,4,5,6)             -0.611          estimate D2E/DX2                !
 ! D20   D(9,4,5,7)            119.3279         estimate D2E/DX2                !
 ! D21   D(9,4,5,8)           -120.6499         estimate D2E/DX2                !
 ! D22   D(1,4,9,10)           178.5674         estimate D2E/DX2                !
 ! D23   D(1,4,9,11)            -2.478          estimate D2E/DX2                !
 ! D24   D(5,4,9,10)            -0.1189         estimate D2E/DX2                !
 ! D25   D(5,4,9,11)           178.8357         estimate D2E/DX2                !
 ! D26   D(4,9,11,12)         -127.8581         estimate D2E/DX2                !
 ! D27   D(4,9,11,13)          113.5721         estimate D2E/DX2                !
 ! D28   D(4,9,11,14)           -8.0412         estimate D2E/DX2                !
 ! D29   D(10,9,11,12)          51.1377         estimate D2E/DX2                !
 ! D30   D(10,9,11,13)         -67.4321         estimate D2E/DX2                !
 ! D31   D(10,9,11,14)         170.9545         estimate D2E/DX2                !
 ! D32   D(16,15,19,20)        -59.572          estimate D2E/DX2                !
 ! D33   D(16,15,19,24)        120.988          estimate D2E/DX2                !
 ! D34   D(17,15,19,20)       -179.6012         estimate D2E/DX2                !
 ! D35   D(17,15,19,24)          0.9588         estimate D2E/DX2                !
 ! D36   D(18,15,19,20)         60.2788         estimate D2E/DX2                !
 ! D37   D(18,15,19,24)       -119.1612         estimate D2E/DX2                !
 ! D38   D(15,19,20,21)       -172.1196         estimate D2E/DX2                !
 ! D39   D(15,19,20,22)         66.7649         estimate D2E/DX2                !
 ! D40   D(15,19,20,23)        -52.5874         estimate D2E/DX2                !
 ! D41   D(24,19,20,21)          7.2918         estimate D2E/DX2                !
 ! D42   D(24,19,20,22)       -113.8237         estimate D2E/DX2                !
 ! D43   D(24,19,20,23)        126.8239         estimate D2E/DX2                !
 ! D44   D(15,19,24,25)          0.5159         estimate D2E/DX2                !
 ! D45   D(15,19,24,26)       -178.387          estimate D2E/DX2                !
 ! D46   D(20,19,24,25)       -178.8605         estimate D2E/DX2                !
 ! D47   D(20,19,24,26)          2.2366         estimate D2E/DX2                !
 ! D48   D(19,24,26,1)        -103.6654         estimate D2E/DX2                !
 ! D49   D(19,24,26,27)         20.4247         estimate D2E/DX2                !
 ! D50   D(19,24,26,28)        135.7918         estimate D2E/DX2                !
 ! D51   D(25,24,26,1)          77.3895         estimate D2E/DX2                !
 ! D52   D(25,24,26,27)       -158.5203         estimate D2E/DX2                !
 ! D53   D(25,24,26,28)        -43.1532         estimate D2E/DX2                !
 --------------------------------------------------------------------------------
 Trust Radius=3.00D-01 FncErr=1.00D-07 GrdErr=1.00D-07 EigMax=2.50D+02 EigMin=1.00D-04
 Number of steps in this run=    138 maximum allowed number of steps=    168.
 GradGradGradGradGradGradGradGradGradGradGradGradGradGradGradGradGradGrad

 Leave Link  103 at Fri Sep 17 15:59:27 2021, MaxMem=   524288000 cpu:               0.0 elap:               0.1
 (Enter /opt/gaussian/g16_legacy/l202.exe)
                          Input orientation:                          
 ---------------------------------------------------------------------
 Center     Atomic      Atomic             Coordinates (Angstroms)
 Number     Number       Type             X           Y           Z
 ---------------------------------------------------------------------
      1          6           0       -0.826900    0.523600   -0.001100
      2          1           0       -0.814000    1.412600    0.640800
      3          1           0       -0.619900    0.902600   -1.011000
      4          6           0       -2.196500   -0.123500    0.010000
      5          6           0       -2.554700   -0.878200   -1.244800
      6          1           0       -3.556100   -1.318400   -1.192600
      7          1           0       -2.533000   -0.207700   -2.110200
      8          1           0       -1.844800   -1.693200   -1.417700
      9          6           0       -3.072700   -0.036700    1.030400
     10          1           0       -4.043100   -0.521400    0.926500
     11          6           0       -2.874200    0.646100    2.346500
     12          1           0       -3.112900   -0.049500    3.157600
     13          1           0       -3.547900    1.504700    2.425100
     14          1           0       -1.851100    0.993300    2.507000
     15          6           0        3.921600    0.814700   -0.294600
     16          1           0        4.746800    0.095800   -0.261000
     17          1           0        3.951000    1.397400    0.632100
     18          1           0        4.094200    1.504900   -1.126900
     19          6           0        2.611000    0.094300   -0.476600
     20          6           0        2.526500   -0.728300   -1.732700
     21          1           0        1.529300   -1.132900   -1.920100
     22          1           0        3.227600   -1.567500   -1.680800
     23          1           0        2.787300   -0.114800   -2.601900
     24          6           0        1.625900    0.220400    0.433900
     25          1           0        1.797000    0.861600    1.298800
     26          6           0        0.277000   -0.448300    0.427700
     27          1           0        0.275100   -1.339000   -0.208300
     28          1           0        0.077600   -0.812400    1.444000
 ---------------------------------------------------------------------
                    Distance matrix (angstroms):
                    1          2          3          4          5
     1  C    0.000000
     2  H    1.096596   0.000000
     3  H    1.098357   1.739603   0.000000
     4  C    1.514815   2.160745   2.140325   0.000000
     5  C    2.548946   3.439955   2.639955   1.507449   0.000000
     6  H    3.501595   4.282386   3.686067   2.173142   1.095127
     7  H    2.809605   3.626063   2.470012   2.148388   1.094970
     8  H    2.820829   3.866001   2.898959   2.150809   1.094567
     9  C    2.534077   2.711823   3.326534   1.347767   2.480520
    10  H    3.506624   3.774794   4.183298   2.099578   2.656536
    11  C    3.117318   2.782330   4.052218   2.551626   3.914461
    12  H    3.941018   3.709038   4.949623   3.279123   4.514361
    13  H    3.775294   3.265948   4.554393   3.210923   4.486962
    14  H    2.749576   2.175797   3.728325   2.757091   4.251302
    15  C    4.766459   4.863987   4.598497   6.197108   6.761010
    16  H    5.596132   5.785301   5.478585   6.952046   7.431584
    17  H    4.898244   4.765032   4.882390   6.363325   7.143195
    18  H    5.142723   5.217635   4.753834   6.596752   7.064060
    19  C    3.497078   3.836290   3.373077   4.836969   5.312282
    20  C    3.976303   4.623407   3.616700   5.070455   5.106771
    21  H    3.460958   4.304513   3.096576   4.315757   4.147283
    22  H    4.861385   5.532211   4.620961   5.862150   5.839540
    23  H    4.498239   5.081084   3.895520   5.626754   5.564303
    24  C    2.509459   2.723465   2.756220   3.861179   4.637065
    25  H    2.947683   2.748433   3.343391   4.310391   5.332363
    26  C    1.532010   2.167635   2.167768   2.529461   3.316715
    27  H    2.174078   3.078703   2.543644   2.762952   3.048678
    28  H    2.165948   2.527985   3.074859   2.775332   3.763373
                    6          7          8          9         10
     6  H    0.000000
     7  H    1.767025   0.000000
     8  H    1.766265   1.777607   0.000000
     9  C    2.611161   3.191220   3.200769   0.000000
    10  H    2.315807   3.405930   3.420660   1.089681   0.000000
    11  C    4.104811   4.550557   4.549856   1.495907   2.178482
    12  H    4.553106   5.301983   5.024261   2.127618   2.462878
    13  H    4.588869   4.952906   5.281498   2.132350   2.568289
    14  H    4.683804   4.819328   4.756111   2.175673   3.097928
    15  C    7.827676   6.782593   6.387667   7.169431   8.167784
    16  H    8.473841   7.517123   6.927313   7.926528   8.891200
    17  H    8.189118   7.220721   6.880755   7.179669   8.226427
    18  H    8.154902   6.915176   6.751602   7.641658   8.633539
    19  C    6.367221   5.405607   4.892339   5.881552   6.828237
    20  C    6.134977   5.100203   4.487596   6.282044   7.090402
    21  H    5.140521   4.170661   3.457006   5.575438   6.287186
    22  H    6.805805   5.934472   5.080774   7.027641   7.794576
    23  H    6.608593   5.343781   5.034881   6.894875   7.698655
    24  C    5.645045   4.894095   4.374477   4.743285   5.738509
    25  H    6.294057   5.613696   5.212397   4.959129   6.013158
    26  C    4.251482   3.794064   3.075274   3.428287   4.349415
    27  H    3.955675   3.575261   2.466188   3.799754   4.539063
    28  H    4.517906   4.451206   3.558196   3.270652   4.163251
                   11         12         13         14         15
    11  C    0.000000
    12  H    1.094861   0.000000
    13  H    1.094186   1.772377   0.000000
    14  H    1.092264   1.761491   1.774082   0.000000
    15  C    7.292923   7.883446   7.979116   6.419106   0.000000
    16  H    8.073508   8.572212   8.831884   7.211076   1.094943
    17  H    7.077215   7.640049   7.711022   6.110885   1.095069
    18  H    7.833303   8.527332   8.427241   6.986670   1.094938
    19  C    6.193690   6.781675   6.952779   5.442463   1.506576
    20  C    6.906259   7.495241   7.692329   6.332641   2.528890
    21  H    6.384319   6.964683   7.184404   5.962134   3.486903
    22  H    7.638791   8.118890   8.497307   7.063183   2.842193
    23  H    7.557659   8.245512   8.247925   6.988812   2.733906
    24  C    4.908173   5.472441   5.690563   4.121243   2.480755
    25  H    4.792100   5.328448   5.500008   3.845221   2.656134
    26  C    3.848320   4.370677   4.736420   3.306132   3.924283
    27  H    4.515054   4.946780   5.443965   4.163316   4.235898
    28  H    3.413920   3.701045   4.413135   2.847877   4.521783
                   16         17         18         19         20
    16  H    0.000000
    17  H    1.767792   0.000000
    18  H    1.777985   1.768090   0.000000
    19  C    2.146655   2.173220   2.147688   0.000000
    20  C    2.788328   3.484262   2.794970   1.503861   0.000000
    21  H    3.822908   4.333679   3.763757   2.181694   1.092350
    22  H    2.662774   3.829288   3.239976   2.142865   1.094756
    23  H    3.060034   3.754957   2.550890   2.142826   1.095403
    24  C    3.199754   2.613561   3.190383   1.347343   2.530863
    25  H    3.423557   2.317604   3.402203   2.098426   3.499992
    26  C    4.555158   4.116633   4.561007   2.561197   3.131450
    27  H    4.696544   4.659013   4.849445   2.753682   2.786674
    28  H    5.053047   4.532728   5.302120   3.305892   4.011933
                   21         22         23         24         25
    21  H    0.000000
    22  H    1.769284   0.000000
    23  H    1.756116   1.775564   0.000000
    24  C    2.716996   3.199060   3.267612   0.000000
    25  H    3.796184   4.101848   4.141197   1.090167   0.000000
    26  C    2.747562   3.795316   3.948583   1.505566   2.187476
    27  H    2.132077   3.307223   3.679556   2.160743   3.070858
    28  H    3.677951   4.500783   4.919190   2.117596   2.404100
                   26         27         28
    26  C    0.000000
    27  H    1.094462   0.000000
    28  H    1.097814   1.745397   0.000000
 Stoichiometry    C10H18
 Framework group  C1[X(C10H18)]
 Deg. of freedom    78
 Full point group                 C1      NOp   1
 Largest Abelian subgroup         C1      NOp   1
 Largest concise Abelian subgroup C1      NOp   1
                         Standard orientation:                         
 ---------------------------------------------------------------------
 Center     Atomic      Atomic             Coordinates (Angstroms)
 Number     Number       Type             X           Y           Z
 ---------------------------------------------------------------------
      1          6           0       -0.745786   -0.045493    0.580300
      2          1           0       -0.871514   -1.012114    1.082654
      3          1           0       -0.286568    0.606566    1.335499
      4          6           0       -2.090167    0.530301    0.185627
      5          6           0       -2.144112    2.035354    0.119992
      6          1           0       -3.137218    2.403144   -0.158889
      7          1           0       -1.893375    2.466965    1.094569
      8          1           0       -1.432614    2.412397   -0.621417
      9          6           0       -3.189374   -0.206028   -0.071355
     10          1           0       -4.114855    0.310377   -0.324764
     11          6           0       -3.306955   -1.697302   -0.075147
     12          1           0       -3.755028   -2.025134   -1.018799
     13          1           0       -3.959042   -2.020779    0.741792
     14          1           0       -2.347625   -2.209994    0.024224
     15          6           0        3.933082   -0.920091    0.330487
     16          1           0        4.707389   -0.789537   -0.432602
     17          1           0        3.745749   -1.994137    0.433006
     18          1           0        4.322250   -0.557669    1.287612
     19          6           0        2.691935   -0.156343   -0.051633
     20          6           0        2.901847    1.323956   -0.213656
     21          1           0        1.972929    1.880932   -0.355491
     22          1           0        3.548629    1.520264   -1.074834
     23          1           0        3.383799    1.735168    0.679952
     24          6           0        1.515354   -0.793329   -0.210502
     25          1           0        1.481926   -1.870768   -0.047797
     26          6           0        0.194804   -0.196975   -0.619449
     27          1           0        0.329687    0.763046   -1.127399
     28          1           0       -0.258290   -0.863023   -1.365291
 ---------------------------------------------------------------------
 Rotational constants (GHZ):           2.4778770           0.5324338           0.4581621
 Leave Link  202 at Fri Sep 17 15:59:27 2021, MaxMem=   524288000 cpu:               0.0 elap:               0.1
 (Enter /opt/gaussian/g16_legacy/l301.exe)
 Standard basis: 6-31G(d,p) (6D, 7F)
 Ernie: Thresh=  0.10000D-02 Tol=  0.10000D-05 Strict=F.
 There are   240 symmetry adapted cartesian basis functions of A   symmetry.
 There are   240 symmetry adapted basis functions of A   symmetry.
   240 basis functions,   406 primitive gaussians,   240 cartesian basis functions
    39 alpha electrons       39 beta electrons
       nuclear repulsion energy       513.2777080546 Hartrees.
 IExCor=    0 DFT=F Ex=HF Corr=None ExCW=0 ScaHFX=  1.000000
 ScaDFX=  1.000000  1.000000  1.000000  1.000000 ScalE2=  1.000000  1.000000
 IRadAn=      5 IRanWt=     -1 IRanGd=            0 ICorTp=0 IEmpDi=  4
 NAtoms=   28 NActive=   28 NUniq=   28 SFac= 1.00D+00 NAtFMM=   60 NAOKFM=F Big=F
 Integral buffers will be    131072 words long.
 Raffenetti 1 integral format.
 Two-electron integral symmetry is turned on.
 Leave Link  301 at Fri Sep 17 15:59:27 2021, MaxMem=   524288000 cpu:               0.0 elap:               0.1
 (Enter /opt/gaussian/g16_legacy/l302.exe)
 NPDir=0 NMtPBC=     1 NCelOv=     1 NCel=       1 NClECP=     1 NCelD=      1
         NCelK=      1 NCelE2=     1 NClLst=     1 CellRange=     0.0.
 One-electron integrals computed using PRISM.
 One-electron integral symmetry used in STVInt
 NBasis=   240 RedAO= T EigKep=  2.09D-03  NBF=   240
 NBsUse=   240 1.00D-06 EigRej= -1.00D+00 NBFU=   240
 Leave Link  302 at Fri Sep 17 15:59:27 2021, MaxMem=   524288000 cpu:               0.2 elap:               0.3
 (Enter /opt/gaussian/g16_legacy/l303.exe)
 DipDrv:  MaxL=1.
 Leave Link  303 at Fri Sep 17 15:59:28 2021, MaxMem=   524288000 cpu:               0.0 elap:               0.0
 (Enter /opt/gaussian/g16_legacy/l401.exe)
 ExpMin= 1.61D-01 ExpMax= 3.05D+03 ExpMxC= 4.57D+02 IAcc=3 IRadAn=         5 AccDes= 0.00D+00
 Harris functional with IExCor=  205 and IRadAn=       5 diagonalized for initial guess.
 HarFok:  IExCor=  205 AccDes= 0.00D+00 IRadAn=         5 IDoV= 1 UseB2=F ITyADJ=14
 ICtDFT=  3500011 ScaDFX=  1.000000  1.000000  1.000000  1.000000
 FoFCou: FMM=F IPFlag=           0 FMFlag=      100000 FMFlg1=           0
         NFxFlg=           0 DoJE=T BraDBF=F KetDBF=T FulRan=T
         wScrn=  0.000000 ICntrl=       500 IOpCl=  0 I1Cent=   200000004 NGrid=           0
         NMat0=    1 NMatS0=      1 NMatT0=    0 NMatD0=    1 NMtDS0=    0 NMtDT0=    0
 Petite list used in FoFCou.
 Harris En= -390.110067203150    
 JPrj=0 DoOrth=F DoCkMO=F.
 Leave Link  401 at Fri Sep 17 15:59:35 2021, MaxMem=   524288000 cpu:               6.5 elap:               7.0
 (Enter /opt/gaussian/g16_legacy/l502.exe)
 Keep R1 ints in memory in canonical form, NReq=425198025.
 FoFCou: FMM=F IPFlag=           0 FMFlag=           0 FMFlg1=           0
         NFxFlg=           0 DoJE=F BraDBF=F KetDBF=F FulRan=T
         wScrn=  0.000000 ICntrl=       600 IOpCl=  0 I1Cent=           0 NGrid=           0
         NMat0=    1 NMatS0=  28920 NMatT0=    0 NMatD0=    1 NMtDS0=    0 NMtDT0=    0
 Symmetry not used in FoFCou.
 Two-electron integral symmetry not used.
 Closed shell SCF:
 Using DIIS extrapolation, IDIIS=  1040.
 NGot=   524288000 LenX=   105970886 LenY=   105912845
 Requested convergence on RMS density matrix=1.00D-08 within 128 cycles.
 Requested convergence on MAX density matrix=1.00D-06.
 Requested convergence on             energy=1.00D-06.
 No special actions if energy rises.

 Cycle   1  Pass 1  IDiag  1:
 E= -388.532778294619    
 DIIS: error= 5.01D-02 at cycle   1 NSaved=   1.
 NSaved= 1 IEnMin= 1 EnMin= -388.532778294619     IErMin= 1 ErrMin= 5.01D-02
 ErrMax= 5.01D-02  0.00D+00 EMaxC= 1.00D-01 BMatC= 8.07D-01 BMatP= 8.07D-01
 IDIUse=3 WtCom= 4.99D-01 WtEn= 5.01D-01
 Coeff-Com:  0.100D+01
 Coeff-En:   0.100D+01
 Coeff:      0.100D+01
 Gap=     0.508 Goal=   None    Shift=    0.000
 GapD=    0.508 DampG=2.000 DampE=0.500 DampFc=1.0000 IDamp=-1.
 RMSDP=3.99D-03 MaxDP=1.15D-01              OVMax= 1.39D-01

 Cycle   2  Pass 1  IDiag  1:
 E= -389.074238520167     Delta-E=       -0.541460225547 Rises=F Damp=F
 DIIS: error= 1.46D-02 at cycle   2 NSaved=   2.
 NSaved= 2 IEnMin= 2 EnMin= -389.074238520167     IErMin= 2 ErrMin= 1.46D-02
 ErrMax= 1.46D-02  0.00D+00 EMaxC= 1.00D-01 BMatC= 8.63D-02 BMatP= 8.07D-01
 IDIUse=3 WtCom= 8.54D-01 WtEn= 1.46D-01
 Coeff-Com:  0.183D+00 0.817D+00
 Coeff-En:   0.000D+00 0.100D+01
 Coeff:      0.156D+00 0.844D+00
 Gap=     0.552 Goal=   None    Shift=    0.000
 RMSDP=1.62D-03 MaxDP=3.04D-02 DE=-5.41D-01 OVMax= 4.55D-02

 Cycle   3  Pass 1  IDiag  1:
 E= -389.151657188625     Delta-E=       -0.077418668459 Rises=F Damp=F
 DIIS: error= 2.67D-03 at cycle   3 NSaved=   3.
 NSaved= 3 IEnMin= 3 EnMin= -389.151657188625     IErMin= 3 ErrMin= 2.67D-03
 ErrMax= 2.67D-03  0.00D+00 EMaxC= 1.00D-01 BMatC= 3.01D-03 BMatP= 8.63D-02
 IDIUse=3 WtCom= 9.73D-01 WtEn= 2.67D-02
 Coeff-Com: -0.245D-01 0.102D+00 0.922D+00
 Coeff-En:   0.000D+00 0.000D+00 0.100D+01
 Coeff:     -0.239D-01 0.997D-01 0.924D+00
 Gap=     0.499 Goal=   None    Shift=    0.000
 RMSDP=2.54D-04 MaxDP=6.75D-03 DE=-7.74D-02 OVMax= 9.70D-03

 Cycle   4  Pass 1  IDiag  1:
 E= -389.155150077700     Delta-E=       -0.003492889075 Rises=F Damp=F
 DIIS: error= 4.95D-04 at cycle   4 NSaved=   4.
 NSaved= 4 IEnMin= 4 EnMin= -389.155150077700     IErMin= 4 ErrMin= 4.95D-04
 ErrMax= 4.95D-04  0.00D+00 EMaxC= 1.00D-01 BMatC= 9.58D-05 BMatP= 3.01D-03
 IDIUse=3 WtCom= 9.95D-01 WtEn= 4.95D-03
 Coeff-Com: -0.442D-02-0.843D-03 0.102D+00 0.903D+00
 Coeff-En:   0.000D+00 0.000D+00 0.000D+00 0.100D+01
 Coeff:     -0.440D-02-0.839D-03 0.102D+00 0.903D+00
 Gap=     0.500 Goal=   None    Shift=    0.000
 RMSDP=7.33D-05 MaxDP=1.75D-03 DE=-3.49D-03 OVMax= 3.51D-03

 Cycle   5  Pass 1  IDiag  1:
 E= -389.155275290880     Delta-E=       -0.000125213180 Rises=F Damp=F
 DIIS: error= 1.73D-04 at cycle   5 NSaved=   5.
 NSaved= 5 IEnMin= 5 EnMin= -389.155275290880     IErMin= 5 ErrMin= 1.73D-04
 ErrMax= 1.73D-04  0.00D+00 EMaxC= 1.00D-01 BMatC= 1.79D-05 BMatP= 9.58D-05
 IDIUse=3 WtCom= 9.98D-01 WtEn= 1.73D-03
 Coeff-Com:  0.248D-02-0.153D-01-0.106D+00 0.196D+00 0.922D+00
 Coeff-En:   0.000D+00 0.000D+00 0.000D+00 0.000D+00 0.100D+01
 Coeff:      0.247D-02-0.153D-01-0.105D+00 0.196D+00 0.923D+00
 Gap=     0.500 Goal=   None    Shift=    0.000
 RMSDP=3.09D-05 MaxDP=7.46D-04 DE=-1.25D-04 OVMax= 1.02D-03

 Cycle   6  Pass 1  IDiag  1:
 E= -389.155298905059     Delta-E=       -0.000023614179 Rises=F Damp=F
 DIIS: error= 3.74D-05 at cycle   6 NSaved=   6.
 NSaved= 6 IEnMin= 6 EnMin= -389.155298905059     IErMin= 6 ErrMin= 3.74D-05
 ErrMax= 3.74D-05  0.00D+00 EMaxC= 1.00D-01 BMatC= 5.50D-07 BMatP= 1.79D-05
 IDIUse=1 WtCom= 1.00D+00 WtEn= 0.00D+00
 Coeff-Com:  0.724D-03-0.330D-02-0.263D-01-0.271D-02 0.163D+00 0.868D+00
 Coeff:      0.724D-03-0.330D-02-0.263D-01-0.271D-02 0.163D+00 0.868D+00
 Gap=     0.500 Goal=   None    Shift=    0.000
 RMSDP=5.42D-06 MaxDP=1.67D-04 DE=-2.36D-05 OVMax= 3.13D-04

 Cycle   7  Pass 1  IDiag  1:
 E= -389.155299758462     Delta-E=       -0.000000853403 Rises=F Damp=F
 DIIS: error= 9.13D-06 at cycle   7 NSaved=   7.
 NSaved= 7 IEnMin= 7 EnMin= -389.155299758462     IErMin= 7 ErrMin= 9.13D-06
 ErrMax= 9.13D-06  0.00D+00 EMaxC= 1.00D-01 BMatC= 4.91D-08 BMatP= 5.50D-07
 IDIUse=1 WtCom= 1.00D+00 WtEn= 0.00D+00
 Coeff-Com: -0.555D-04 0.478D-03 0.325D-02-0.106D-01-0.462D-01 0.126D+00
 Coeff-Com:  0.927D+00
 Coeff:     -0.555D-04 0.478D-03 0.325D-02-0.106D-01-0.462D-01 0.126D+00
 Coeff:      0.927D+00
 Gap=     0.500 Goal=   None    Shift=    0.000
 RMSDP=1.69D-06 MaxDP=4.71D-05 DE=-8.53D-07 OVMax= 8.68D-05

 Cycle   8  Pass 1  IDiag  1:
 E= -389.155299843594     Delta-E=       -0.000000085132 Rises=F Damp=F
 DIIS: error= 2.98D-06 at cycle   8 NSaved=   8.
 NSaved= 8 IEnMin= 8 EnMin= -389.155299843594     IErMin= 8 ErrMin= 2.98D-06
 ErrMax= 2.98D-06  0.00D+00 EMaxC= 1.00D-01 BMatC= 4.91D-09 BMatP= 4.91D-08
 IDIUse=1 WtCom= 1.00D+00 WtEn= 0.00D+00
 Coeff-Com: -0.553D-04 0.226D-03 0.195D-02 0.331D-02-0.143D-01-0.848D-01
 Coeff-Com: -0.129D+00 0.122D+01
 Coeff:     -0.553D-04 0.226D-03 0.195D-02 0.331D-02-0.143D-01-0.848D-01
 Coeff:     -0.129D+00 0.122D+01
 Gap=     0.500 Goal=   None    Shift=    0.000
 RMSDP=7.76D-07 MaxDP=2.58D-05 DE=-8.51D-08 OVMax= 5.60D-05

 Cycle   9  Pass 1  IDiag  1:
 E= -389.155299858899     Delta-E=       -0.000000015306 Rises=F Damp=F
 DIIS: error= 1.35D-06 at cycle   9 NSaved=   9.
 NSaved= 9 IEnMin= 9 EnMin= -389.155299858899     IErMin= 9 ErrMin= 1.35D-06
 ErrMax= 1.35D-06  0.00D+00 EMaxC= 1.00D-01 BMatC= 6.52D-10 BMatP= 4.91D-09
 IDIUse=1 WtCom= 1.00D+00 WtEn= 0.00D+00
 Coeff-Com:  0.122D-04-0.776D-04-0.580D-03 0.123D-02 0.419D-02 0.522D-02
 Coeff-Com: -0.723D-01-0.196D+00 0.126D+01
 Coeff:      0.122D-04-0.776D-04-0.580D-03 0.123D-02 0.419D-02 0.522D-02
 Coeff:     -0.723D-01-0.196D+00 0.126D+01
 Gap=     0.500 Goal=   None    Shift=    0.000
 RMSDP=2.99D-07 MaxDP=1.28D-05 DE=-1.53D-08 OVMax= 2.62D-05

 Cycle  10  Pass 1  IDiag  1:
 E= -389.155299861099     Delta-E=       -0.000000002200 Rises=F Damp=F
 DIIS: error= 4.11D-07 at cycle  10 NSaved=  10.
 NSaved=10 IEnMin=10 EnMin= -389.155299861099     IErMin=10 ErrMin= 4.11D-07
 ErrMax= 4.11D-07  0.00D+00 EMaxC= 1.00D-01 BMatC= 8.50D-11 BMatP= 6.52D-10
 IDIUse=1 WtCom= 1.00D+00 WtEn= 0.00D+00
 Coeff-Com:  0.803D-05-0.368D-04-0.305D-03-0.200D-03 0.163D-02 0.134D-01
 Coeff-Com:  0.123D-01-0.192D+00 0.980D-01 0.107D+01
 Coeff:      0.803D-05-0.368D-04-0.305D-03-0.200D-03 0.163D-02 0.134D-01
 Coeff:      0.123D-01-0.192D+00 0.980D-01 0.107D+01
 Gap=     0.500 Goal=   None    Shift=    0.000
 RMSDP=1.08D-07 MaxDP=3.31D-06 DE=-2.20D-09 OVMax= 8.53D-06

 Cycle  11  Pass 1  IDiag  1:
 E= -389.155299861344     Delta-E=       -0.000000000245 Rises=F Damp=F
 DIIS: error= 1.55D-07 at cycle  11 NSaved=  11.
 NSaved=11 IEnMin=11 EnMin= -389.155299861344     IErMin=11 ErrMin= 1.55D-07
 ErrMax= 1.55D-07  0.00D+00 EMaxC= 1.00D-01 BMatC= 5.89D-12 BMatP= 8.50D-11
 IDIUse=1 WtCom= 1.00D+00 WtEn= 0.00D+00
 Coeff-Com: -0.508D-06 0.458D-05 0.337D-04-0.107D-03-0.456D-03 0.987D-03
 Coeff-Com:  0.873D-02 0.491D-02-0.108D+00 0.926D-01 0.100D+01
 Coeff:     -0.508D-06 0.458D-05 0.337D-04-0.107D-03-0.456D-03 0.987D-03
 Coeff:      0.873D-02 0.491D-02-0.108D+00 0.926D-01 0.100D+01
 Gap=     0.500 Goal=   None    Shift=    0.000
 RMSDP=2.30D-08 MaxDP=1.01D-06 DE=-2.45D-10 OVMax= 2.02D-06

 Cycle  12  Pass 1  IDiag  1:
 E= -389.155299861353     Delta-E=       -0.000000000009 Rises=F Damp=F
 DIIS: error= 4.41D-08 at cycle  12 NSaved=  12.
 NSaved=12 IEnMin=12 EnMin= -389.155299861353     IErMin=12 ErrMin= 4.41D-08
 ErrMax= 4.41D-08  0.00D+00 EMaxC= 1.00D-01 BMatC= 9.46D-13 BMatP= 5.89D-12
 IDIUse=1 WtCom= 1.00D+00 WtEn= 0.00D+00
 Coeff-Com: -0.946D-06 0.495D-05 0.398D-04 0.172D-05-0.291D-03-0.124D-02
 Coeff-Com:  0.339D-03 0.207D-01-0.365D-01-0.106D+00 0.192D+00 0.931D+00
 Coeff:     -0.946D-06 0.495D-05 0.398D-04 0.172D-05-0.291D-03-0.124D-02
 Coeff:      0.339D-03 0.207D-01-0.365D-01-0.106D+00 0.192D+00 0.931D+00
 Gap=     0.500 Goal=   None    Shift=    0.000
 RMSDP=9.74D-09 MaxDP=2.60D-07 DE=-9.32D-12 OVMax= 6.38D-07

 SCF Done:  E(RHF) =  -389.155299861     A.U. after   12 cycles
            NFock= 12  Conv=0.97D-08     -V/T= 2.0014
 KE= 3.886245794010D+02 PE=-1.931189846117D+03 EE= 6.401322588003D+02
 Leave Link  502 at Fri Sep 17 15:59:56 2021, MaxMem=   524288000 cpu:              20.6 elap:              20.8
 (Enter /opt/gaussian/g16_legacy/l801.exe)
 ExpMin= 1.61D-01 ExpMax= 3.05D+03 ExpMxC= 4.57D+02 IAcc=3 IRadAn=         5 AccDes= 0.00D+00
 HarFok:  IExCor=  205 AccDes= 0.00D+00 IRadAn=         5 IDoV=-2 UseB2=F ITyADJ=14
 ICtDFT= 12500011 ScaDFX=  1.000000  1.000000  1.000000  1.000000
 Largest valence mixing into a core orbital is  1.97D-04
 Largest core mixing into a valence orbital is  3.52D-05
 Range of M.O.s used for correlation:    11   240
 NBasis=   240 NAE=    39 NBE=    39 NFC=    10 NFV=     0
 NROrb=    230 NOA=    29 NOB=    29 NVA=   201 NVB=   201
 Leave Link  801 at Fri Sep 17 15:59:57 2021, MaxMem=   524288000 cpu:               1.0 elap:               1.0
 (Enter /opt/gaussian/g16_legacy/l906.exe)
 Frozen-core derivative calculation, NFC=  10 NFV=   0.
 FulOut=F Deriv=T AODrv=T NAtomX=    28
   MMem=          89  MDisk=          29 MDiskD=          29
  W3Min=     2246400 MinDsk=     2795480 NBas6D=         240
 NBas2D=       29244    NTT=       28920    LW2=     2040000
    MDV=   523629461 MDiskM=       30186 NBas2p=       24099
 Fully direct method using O(ONN) memory.
 IMap=   1   2   3   4   5   6   7   8   9  10  11  12  13  14  15  16  17  18  19  20
 IMap=  21  22  23  24  25  26  27  28  29  30  31  32  33  34  35  36  37  38  39
 JobTyp=1 Pass  1:  I=  11 to  39 NPSUse=  1 ParTrn=F ParDer=F DoDerP=T.
 Spin components of T(2) and E(2):
     alpha-alpha T2 =       0.5711505737D-01 E2=     -0.1637338845D+00
     alpha-beta  T2 =       0.3617419322D+00 E2=     -0.1089190833D+01
     beta-beta   T2 =       0.5711505737D-01 E2=     -0.1637338845D+00
 The integrals were generated   1 times.
 ANorm=    0.1214895900D+01
 E2 =    -0.1416658602D+01 EUMP2 =    -0.39057195846314D+03
 Leave Link  906 at Fri Sep 17 16:02:37 2021, MaxMem=   524288000 cpu:             160.3 elap:             160.4
 (Enter /opt/gaussian/g16_legacy/l1002.exe)
 Minotr:  Closed shell wavefunction.
          Computing MP2/KS-MP2 derivatives.
          Using Z-Vector for PSCF gradient.
          Skipping F1 and S1 gradient terms here.
          IDoAtm=1111111111111111111111111111
          Frozen-core window.
          Direct CPHF calculation.
          Differentiating once with respect to electric field.
                with respect to dipole field.
          Differentiating once with respect to nuclear coordinates.
          Requested convergence is 1.0D-10 RMS, and 1.0D-09 maximum.
          NewPWx=F KeepS1=T KeepF1=T KeepIn=T MapXYZ=F SortEE=F KeepMc=T.
 Keep R1 ints in memory in canonical form, NReq=425201067.
 FoFCou: FMM=F IPFlag=           0 FMFlag=           0 FMFlg1=           0
         NFxFlg=           0 DoJE=F BraDBF=F KetDBF=F FulRan=T
         wScrn=  0.000000 ICntrl=       600 IOpCl=  0 I1Cent=           0 NGrid=           0
         NMat0=    1 NMatS0=  28920 NMatT0=    0 NMatD0=    1 NMtDS0=    0 NMtDT0=    0
 Symmetry not used in FoFCou.
 Two-electron integral symmetry not used.
          MDV=     524288000 using IRadAn=       5.
          Solving linear equations separately, MaxMat=       0.
          There are     1 degrees of freedom in the 1st order CPHF.  IDoFFX=0 NUNeed=     1.
 LinEq1:  Iter=  0 NonCon=     1 RMS=2.55D-03 Max=4.26D-02 NDo=     1
 AX will form     1 AO Fock derivatives at one time.
 LinEq1:  Iter=  1 NonCon=     1 RMS=6.89D-04 Max=1.12D-02 NDo=     1
 LinEq1:  Iter=  2 NonCon=     1 RMS=1.61D-04 Max=4.13D-03 NDo=     1
 LinEq1:  Iter=  3 NonCon=     1 RMS=4.42D-05 Max=5.11D-04 NDo=     1
 LinEq1:  Iter=  4 NonCon=     1 RMS=1.99D-05 Max=8.26D-04 NDo=     1
 LinEq1:  Iter=  5 NonCon=     1 RMS=4.81D-06 Max=8.80D-05 NDo=     1
 LinEq1:  Iter=  6 NonCon=     1 RMS=1.45D-06 Max=2.33D-05 NDo=     1
 LinEq1:  Iter=  7 NonCon=     1 RMS=4.00D-07 Max=4.15D-06 NDo=     1
 LinEq1:  Iter=  8 NonCon=     1 RMS=8.45D-08 Max=1.47D-06 NDo=     1
 LinEq1:  Iter=  9 NonCon=     1 RMS=2.22D-08 Max=5.49D-07 NDo=     1
 LinEq1:  Iter= 10 NonCon=     1 RMS=7.44D-09 Max=1.96D-07 NDo=     1
 LinEq1:  Iter= 11 NonCon=     1 RMS=2.38D-09 Max=7.31D-08 NDo=     1
 LinEq1:  Iter= 12 NonCon=     1 RMS=8.63D-10 Max=1.36D-08 NDo=     1
 LinEq1:  Iter= 13 NonCon=     1 RMS=2.39D-10 Max=3.38D-09 NDo=     1
 LinEq1:  Iter= 14 NonCon=     0 RMS=5.52D-11 Max=6.92D-10 NDo=     1
 Linear equations converged to 1.000D-10 1.000D-09 after    14 iterations.
 End of Minotr F.D. properties file   721 does not exist.
 End of Minotr F.D. properties file   722 does not exist.
 End of Minotr F.D. properties file   788 does not exist.
 Leave Link 1002 at Fri Sep 17 16:02:56 2021, MaxMem=   524288000 cpu:              18.6 elap:              18.7
 (Enter /opt/gaussian/g16_legacy/l601.exe)
 Copying SCF densities to generalized density rwf, IOpCl= 0 IROHF=0.

 **********************************************************************

            Population analysis using the SCF density.

 **********************************************************************

 Orbital symmetries:
       Occupied  (A) (A) (A) (A) (A) (A) (A) (A) (A) (A) (A) (A)
                 (A) (A) (A) (A) (A) (A) (A) (A) (A) (A) (A) (A)
                 (A) (A) (A) (A) (A) (A) (A) (A) (A) (A) (A) (A)
                 (A) (A) (A)
       Virtual   (A) (A) (A) (A) (A) (A) (A) (A) (A) (A) (A) (A)
                 (A) (A) (A) (A) (A) (A) (A) (A) (A) (A) (A) (A)
                 (A) (A) (A) (A) (A) (A) (A) (A) (A) (A) (A) (A)
                 (A) (A) (A) (A) (A) (A) (A) (A) (A) (A) (A) (A)
                 (A) (A) (A) (A) (A) (A) (A) (A) (A) (A) (A) (A)
                 (A) (A) (A) (A) (A) (A) (A) (A) (A) (A) (A) (A)
                 (A) (A) (A) (A) (A) (A) (A) (A) (A) (A) (A) (A)
                 (A) (A) (A) (A) (A) (A) (A) (A) (A) (A) (A) (A)
                 (A) (A) (A) (A) (A) (A) (A) (A) (A) (A) (A) (A)
                 (A) (A) (A) (A) (A) (A) (A) (A) (A) (A) (A) (A)
                 (A) (A) (A) (A) (A) (A) (A) (A) (A) (A) (A) (A)
                 (A) (A) (A) (A) (A) (A) (A) (A) (A) (A) (A) (A)
                 (A) (A) (A) (A) (A) (A) (A) (A) (A) (A) (A) (A)
                 (A) (A) (A) (A) (A) (A) (A) (A) (A) (A) (A) (A)
                 (A) (A) (A) (A) (A) (A) (A) (A) (A) (A) (A) (A)
                 (A) (A) (A) (A) (A) (A) (A) (A) (A) (A) (A) (A)
                 (A) (A) (A) (A) (A) (A) (A) (A) (A)
 The electronic state is 1-A.
 Alpha  occ. eigenvalues --  -11.23059 -11.22492 -11.21994 -11.21919 -11.21893
 Alpha  occ. eigenvalues --  -11.21650 -11.21538 -11.21500 -11.21457 -11.21435
 Alpha  occ. eigenvalues --   -1.10615  -1.08327  -1.01892  -0.98024  -0.93648
 Alpha  occ. eigenvalues --   -0.91775  -0.86738  -0.82690  -0.70609  -0.69413
 Alpha  occ. eigenvalues --   -0.64401  -0.61335  -0.60398  -0.59007  -0.58077
 Alpha  occ. eigenvalues --   -0.56878  -0.55468  -0.55041  -0.53553  -0.51978
 Alpha  occ. eigenvalues --   -0.51780  -0.51261  -0.50451  -0.49763  -0.47237
 Alpha  occ. eigenvalues --   -0.46642  -0.44233  -0.33255  -0.31613
 Alpha virt. eigenvalues --    0.18420   0.19608   0.22268   0.24508   0.24867
 Alpha virt. eigenvalues --    0.27280   0.28582   0.29021   0.30342   0.30570
 Alpha virt. eigenvalues --    0.31452   0.32295   0.32993   0.33605   0.33919
 Alpha virt. eigenvalues --    0.34861   0.36106   0.37175   0.38360   0.39994
 Alpha virt. eigenvalues --    0.40807   0.41939   0.42664   0.44321   0.45309
 Alpha virt. eigenvalues --    0.51885   0.54069   0.61042   0.62387   0.69419
 Alpha virt. eigenvalues --    0.71419   0.71712   0.74323   0.75992   0.76600
 Alpha virt. eigenvalues --    0.77888   0.78837   0.80149   0.80438   0.82526
 Alpha virt. eigenvalues --    0.82864   0.85808   0.89230   0.90311   0.92129
 Alpha virt. eigenvalues --    0.93067   0.94945   0.96558   0.97591   0.99408
 Alpha virt. eigenvalues --    0.99666   1.01111   1.02715   1.04774   1.06343
 Alpha virt. eigenvalues --    1.07246   1.08350   1.08464   1.10884   1.12201
 Alpha virt. eigenvalues --    1.13083   1.13493   1.14142   1.15107   1.15427
 Alpha virt. eigenvalues --    1.15972   1.16403   1.17989   1.18284   1.20092
 Alpha virt. eigenvalues --    1.20926   1.22025   1.22904   1.24888   1.26885
 Alpha virt. eigenvalues --    1.29779   1.39910   1.40849   1.44074   1.45167
 Alpha virt. eigenvalues --    1.46115   1.53928   1.55257   1.57487   1.59001
 Alpha virt. eigenvalues --    1.61319   1.62903   1.65441   1.68693   1.70720
 Alpha virt. eigenvalues --    1.74994   1.83305   1.90944   1.92635   1.95886
 Alpha virt. eigenvalues --    1.98116   2.01341   2.02514   2.04960   2.08418
 Alpha virt. eigenvalues --    2.09276   2.11236   2.11878   2.13549   2.13758
 Alpha virt. eigenvalues --    2.15744   2.17934   2.19183   2.23538   2.27678
 Alpha virt. eigenvalues --    2.27930   2.30152   2.32118   2.34935   2.35558
 Alpha virt. eigenvalues --    2.35639   2.35787   2.39412   2.39797   2.40227
 Alpha virt. eigenvalues --    2.41251   2.41850   2.42902   2.44989   2.45575
 Alpha virt. eigenvalues --    2.47190   2.49014   2.49668   2.49765   2.53205
 Alpha virt. eigenvalues --    2.56184   2.58403   2.60482   2.62611   2.64595
 Alpha virt. eigenvalues --    2.66045   2.67903   2.71567   2.72559   2.74076
 Alpha virt. eigenvalues --    2.76096   2.77694   2.80998   2.82554   2.84077
 Alpha virt. eigenvalues --    2.86960   2.90351   2.92351   2.93719   2.93884
 Alpha virt. eigenvalues --    2.97257   2.98948   3.00899   3.02345   3.04617
 Alpha virt. eigenvalues --    3.06572   3.07047   3.09533   3.11567   3.16234
 Alpha virt. eigenvalues --    3.17179   3.17507   3.19751   3.20509   3.20973
 Alpha virt. eigenvalues --    3.22293   3.25236   3.26470   3.27445   3.37024
 Alpha virt. eigenvalues --    3.39007   3.44383   3.45746   3.55488   3.57311
 Alpha virt. eigenvalues --    3.58488   3.60444   3.67986   3.73340   3.78353
 Alpha virt. eigenvalues --    3.78760   3.80289   3.81207   3.82235   3.82865
 Alpha virt. eigenvalues --    3.83544   3.85739   3.87956   3.89124   3.90869
 Alpha virt. eigenvalues --    3.96056   4.59176   4.62294   4.74495   4.82467
 Alpha virt. eigenvalues --    4.89197   4.92416   4.93232   5.07344   5.10306
 Alpha virt. eigenvalues --    5.16932
          Condensed to atoms (all electrons):
               1          2          3          4          5          6
     1  C    5.000767   0.414389   0.412395   0.339580  -0.058813   0.003651
     2  H    0.414389   0.576723  -0.030329  -0.040669   0.003305  -0.000107
     3  H    0.412395  -0.030329   0.583801  -0.045120  -0.004632   0.000092
     4  C    0.339580  -0.040669  -0.045120   4.957299   0.350738  -0.041407
     5  C   -0.058813   0.003305  -0.004632   0.350738   4.895158   0.406595
     6  H    0.003651  -0.000107   0.000092  -0.041407   0.406595   0.570197
     7  H   -0.003456  -0.000014   0.002509  -0.043209   0.397600  -0.027588
     8  H   -0.000423  -0.000036  -0.000305  -0.046050   0.399654  -0.028126
     9  C   -0.043510  -0.002305   0.001833   0.696637  -0.045825  -0.002762
    10  H    0.003081   0.000055  -0.000112  -0.036444  -0.006440   0.002175
    11  C   -0.007011  -0.002042   0.000131  -0.050643   0.003400   0.000140
    12  H    0.000233  -0.000035  -0.000010   0.000511  -0.000102  -0.000008
    13  H    0.000216   0.000157   0.000029  -0.001298  -0.000114  -0.000004
    14  H   -0.002040  -0.001242   0.000010  -0.000449   0.000090   0.000004
    15  C   -0.000105  -0.000001  -0.000032   0.000001  -0.000000   0.000000
    16  H   -0.000004   0.000000   0.000001   0.000000  -0.000000   0.000000
    17  H   -0.000002   0.000002  -0.000002   0.000000  -0.000000  -0.000000
    18  H    0.000021  -0.000001  -0.000005  -0.000000   0.000000  -0.000000
    19  C   -0.002758   0.000602   0.000933  -0.000035   0.000007  -0.000000
    20  C    0.000487  -0.000011   0.000129  -0.000018  -0.000017   0.000000
    21  H    0.000080  -0.000011   0.000148  -0.000063   0.000095  -0.000001
    22  H   -0.000041  -0.000000   0.000012   0.000001  -0.000000   0.000000
    23  H    0.000071  -0.000000  -0.000066  -0.000002   0.000000  -0.000000
    24  C   -0.062589  -0.001372  -0.000489   0.006102  -0.000075   0.000002
    25  H   -0.000349   0.001131   0.000186  -0.000118  -0.000002   0.000000
    26  C    0.325369  -0.041383  -0.042901  -0.056886  -0.000803  -0.000094
    27  H   -0.040034   0.004046  -0.002359  -0.002269  -0.000486  -0.000024
    28  H   -0.045288  -0.002681   0.004396  -0.001369   0.000304  -0.000006
               7          8          9         10         11         12
     1  C   -0.003456  -0.000423  -0.043510   0.003081  -0.007011   0.000233
     2  H   -0.000014  -0.000036  -0.002305   0.000055  -0.002042  -0.000035
     3  H    0.002509  -0.000305   0.001833  -0.000112   0.000131  -0.000010
     4  C   -0.043209  -0.046050   0.696637  -0.036444  -0.050643   0.000511
     5  C    0.397600   0.399654  -0.045825  -0.006440   0.003400  -0.000102
     6  H   -0.027588  -0.028126  -0.002762   0.002175   0.000140  -0.000008
     7  H    0.593367  -0.035166  -0.000478   0.000245  -0.000113  -0.000004
     8  H   -0.035166   0.598091  -0.000964   0.000130  -0.000102   0.000015
     9  C   -0.000478  -0.000964   4.939986   0.404574   0.338336  -0.042711
    10  H    0.000245   0.000130   0.404574   0.559855  -0.043637  -0.002623
    11  C   -0.000113  -0.000102   0.338336  -0.043637   4.903516   0.402918
    12  H   -0.000004   0.000015  -0.042711  -0.002623   0.402918   0.585822
    13  H    0.000021  -0.000005  -0.044536  -0.000244   0.400267  -0.033312
    14  H   -0.000001   0.000001  -0.041988   0.003343   0.408022  -0.029461
    15  C    0.000000  -0.000000  -0.000000   0.000000   0.000000  -0.000000
    16  H   -0.000000   0.000000  -0.000000   0.000000  -0.000000  -0.000000
    17  H   -0.000000  -0.000000   0.000000   0.000000  -0.000000   0.000000
    18  H   -0.000000   0.000000   0.000000  -0.000000  -0.000000   0.000000
    19  C   -0.000001   0.000017  -0.000002   0.000000   0.000000   0.000000
    20  C   -0.000002  -0.000029  -0.000000  -0.000000  -0.000000  -0.000000
    21  H    0.000005   0.000222  -0.000001   0.000000  -0.000000   0.000000
    22  H    0.000000  -0.000000   0.000000   0.000000   0.000000  -0.000000
    23  H    0.000000  -0.000001   0.000000  -0.000000   0.000000   0.000000
    24  C    0.000000  -0.000081  -0.000010   0.000002  -0.000022  -0.000002
    25  H    0.000000  -0.000000   0.000009  -0.000000  -0.000002  -0.000000
    26  C    0.000024   0.000831  -0.003333  -0.000120   0.000493   0.000079
    27  H    0.000076  -0.000581   0.000498   0.000002  -0.000024   0.000000
    28  H    0.000006   0.000016   0.000946  -0.000032   0.000106  -0.000059
              13         14         15         16         17         18
     1  C    0.000216  -0.002040  -0.000105  -0.000004  -0.000002   0.000021
     2  H    0.000157  -0.001242  -0.000001   0.000000   0.000002  -0.000001
     3  H    0.000029   0.000010  -0.000032   0.000001  -0.000002  -0.000005
     4  C   -0.001298  -0.000449   0.000001   0.000000   0.000000  -0.000000
     5  C   -0.000114   0.000090  -0.000000  -0.000000  -0.000000   0.000000
     6  H   -0.000004   0.000004   0.000000   0.000000  -0.000000  -0.000000
     7  H    0.000021  -0.000001   0.000000  -0.000000  -0.000000  -0.000000
     8  H   -0.000005   0.000001  -0.000000   0.000000  -0.000000   0.000000
     9  C   -0.044536  -0.041988  -0.000000  -0.000000   0.000000   0.000000
    10  H   -0.000244   0.003343   0.000000   0.000000   0.000000  -0.000000
    11  C    0.400267   0.408022   0.000000  -0.000000  -0.000000  -0.000000
    12  H   -0.033312  -0.029461  -0.000000  -0.000000   0.000000   0.000000
    13  H    0.585297  -0.027462   0.000000   0.000000  -0.000000  -0.000000
    14  H   -0.027462   0.575223  -0.000000   0.000000   0.000000  -0.000000
    15  C    0.000000  -0.000000   4.903449   0.399272   0.405376   0.396990
    16  H    0.000000   0.000000   0.399272   0.593111  -0.027574  -0.034895
    17  H   -0.000000   0.000000   0.405376  -0.027574   0.568053  -0.027345
    18  H   -0.000000  -0.000000   0.396990  -0.034895  -0.027345   0.594249
    19  C   -0.000000   0.000001   0.351811  -0.045805  -0.040400  -0.044204
    20  C    0.000000   0.000000  -0.065367  -0.001091   0.003696  -0.002144
    21  H   -0.000000   0.000000   0.003707  -0.000024  -0.000109  -0.000072
    22  H    0.000000   0.000000  -0.001680   0.002542  -0.000080  -0.000367
    23  H   -0.000000  -0.000000  -0.003424  -0.000508   0.000012   0.002838
    24  C    0.000002   0.000034  -0.044529  -0.001111  -0.002344  -0.000622
    25  H   -0.000000   0.000035  -0.006707   0.000153   0.002203   0.000224
    26  C   -0.000045  -0.000174   0.003142  -0.000123   0.000141  -0.000086
    27  H   -0.000000  -0.000005   0.000062   0.000004   0.000006  -0.000003
    28  H    0.000018   0.000114  -0.000098   0.000012  -0.000011  -0.000002
              19         20         21         22         23         24
     1  C   -0.002758   0.000487   0.000080  -0.000041   0.000071  -0.062589
     2  H    0.000602  -0.000011  -0.000011  -0.000000  -0.000000  -0.001372
     3  H    0.000933   0.000129   0.000148   0.000012  -0.000066  -0.000489
     4  C   -0.000035  -0.000018  -0.000063   0.000001  -0.000002   0.006102
     5  C    0.000007  -0.000017   0.000095  -0.000000   0.000000  -0.000075
     6  H   -0.000000   0.000000  -0.000001   0.000000  -0.000000   0.000002
     7  H   -0.000001  -0.000002   0.000005   0.000000   0.000000   0.000000
     8  H    0.000017  -0.000029   0.000222  -0.000000  -0.000001  -0.000081
     9  C   -0.000002  -0.000000  -0.000001   0.000000   0.000000  -0.000010
    10  H    0.000000  -0.000000   0.000000   0.000000  -0.000000   0.000002
    11  C    0.000000  -0.000000  -0.000000   0.000000   0.000000  -0.000022
    12  H    0.000000  -0.000000   0.000000  -0.000000   0.000000  -0.000002
    13  H   -0.000000   0.000000  -0.000000   0.000000  -0.000000   0.000002
    14  H    0.000001   0.000000   0.000000   0.000000  -0.000000   0.000034
    15  C    0.351811  -0.065367   0.003707  -0.001680  -0.003424  -0.044529
    16  H   -0.045805  -0.001091  -0.000024   0.002542  -0.000508  -0.001111
    17  H   -0.040400   0.003696  -0.000109  -0.000080   0.000012  -0.002344
    18  H   -0.044204  -0.002144  -0.000072  -0.000367   0.002838  -0.000622
    19  C    4.920182   0.348930  -0.036972  -0.043919  -0.043829   0.695500
    20  C    0.348930   4.906814   0.405950   0.398574   0.402443  -0.043603
    21  H   -0.036972   0.405950   0.570737  -0.026878  -0.029647  -0.002888
    22  H   -0.043919   0.398574  -0.026878   0.583068  -0.033087  -0.000742
    23  H   -0.043829   0.402443  -0.029647  -0.033087   0.585531   0.000408
    24  C    0.695500  -0.043603  -0.002888  -0.000742   0.000408   4.962275
    25  H   -0.035970   0.003360   0.000053  -0.000124  -0.000112   0.403010
    26  C   -0.048871  -0.007185  -0.002349   0.000191   0.000276   0.341694
    27  H    0.000559  -0.001878  -0.001474   0.000040  -0.000035  -0.043132
    28  H    0.000972   0.000145   0.000041   0.000033  -0.000012  -0.044018
              25         26         27         28
     1  C   -0.000349   0.325369  -0.040034  -0.045288
     2  H    0.001131  -0.041383   0.004046  -0.002681
     3  H    0.000186  -0.042901  -0.002359   0.004396
     4  C   -0.000118  -0.056886  -0.002269  -0.001369
     5  C   -0.000002  -0.000803  -0.000486   0.000304
     6  H    0.000000  -0.000094  -0.000024  -0.000006
     7  H    0.000000   0.000024   0.000076   0.000006
     8  H   -0.000000   0.000831  -0.000581   0.000016
     9  C    0.000009  -0.003333   0.000498   0.000946
    10  H   -0.000000  -0.000120   0.000002  -0.000032
    11  C   -0.000002   0.000493  -0.000024   0.000106
    12  H   -0.000000   0.000079   0.000000  -0.000059
    13  H   -0.000000  -0.000045  -0.000000   0.000018
    14  H    0.000035  -0.000174  -0.000005   0.000114
    15  C   -0.006707   0.003142   0.000062  -0.000098
    16  H    0.000153  -0.000123   0.000004   0.000012
    17  H    0.002203   0.000141   0.000006  -0.000011
    18  H    0.000224  -0.000086  -0.000003  -0.000002
    19  C   -0.035970  -0.048871   0.000559   0.000972
    20  C    0.003360  -0.007185  -0.001878   0.000145
    21  H    0.000053  -0.002349  -0.001474   0.000041
    22  H   -0.000124   0.000191   0.000040   0.000033
    23  H   -0.000112   0.000276  -0.000035  -0.000012
    24  C    0.403010   0.341694  -0.043132  -0.044018
    25  H    0.558244  -0.041942   0.003303  -0.003530
    26  C   -0.041942   4.978445   0.415005   0.415016
    27  H    0.003303   0.415005   0.579586  -0.029784
    28  H   -0.003530   0.415016  -0.029784   0.581228
 Mulliken charges:
               1
     1  C   -0.233919
     2  H    0.121829
     3  H    0.119756
     4  C    0.015179
     5  C   -0.339635
     6  H    0.117269
     7  H    0.116177
     8  H    0.112891
     9  C   -0.154395
    10  H    0.116189
    11  C   -0.353732
    12  H    0.118750
    13  H    0.121015
    14  H    0.115945
    15  C   -0.341866
    16  H    0.116040
    17  H    0.118378
    18  H    0.115428
    19  C    0.023251
    20  C   -0.349182
    21  H    0.119451
    22  H    0.122457
    23  H    0.119145
    24  C   -0.161397
    25  H    0.116948
    26  C   -0.234410
    27  H    0.118901
    28  H    0.123537
 Sum of Mulliken charges =  -0.00000
 Mulliken charges with hydrogens summed into heavy atoms:
               1
     1  C    0.007666
     4  C    0.015179
     5  C    0.006702
     9  C   -0.038206
    11  C    0.001978
    15  C    0.007980
    19  C    0.023251
    20  C    0.011872
    24  C   -0.044449
    26  C    0.008028
 Electronic spatial extent (au):  <R**2>=           2545.0002
 Charge=             -0.0000 electrons
 Dipole moment (field-independent basis, Debye):
    X=              0.3493    Y=              0.1468    Z=              0.0260  Tot=              0.3797
 Quadrupole moment (field-independent basis, Debye-Ang):
   XX=            -63.8836   YY=            -63.9178   ZZ=            -67.2165
   XY=              0.9686   XZ=              0.9086   YZ=             -0.2409
 Traceless Quadrupole moment (field-independent basis, Debye-Ang):
   XX=              1.1223   YY=              1.0882   ZZ=             -2.2105
   XY=              0.9686   XZ=              0.9086   YZ=             -0.2409
 Octapole moment (field-independent basis, Debye-Ang**2):
  XXX=              0.9275  YYY=             -2.8082  ZZZ=              0.8871  XYY=             -0.2793
  XXY=              1.7997  XXZ=             -2.7172  XZZ=              1.8067  YZZ=              1.3755
  YYZ=              0.5277  XYZ=             -0.3786
 Hexadecapole moment (field-independent basis, Debye-Ang**3):
 XXXX=          -2708.1842 YYYY=           -641.3356 ZZZZ=           -161.4631 XXXY=              7.6904
 XXXZ=             11.8640 YYYX=             -8.1788 YYYZ=             -1.4930 ZZZX=              2.8116
 ZZZY=              1.9619 XXYY=           -565.0324 XXZZ=           -492.0578 YYZZ=           -130.8312
 XXYZ=             -3.0923 YYXZ=              1.7815 ZZXY=              8.1561
 N-N= 5.132777080546D+02 E-N=-1.931189845113D+03  KE= 3.886245794010D+02
 No NMR shielding tensors so no spin-rotation constants.
 Leave Link  601 at Fri Sep 17 16:02:56 2021, MaxMem=   524288000 cpu:               0.2 elap:               0.4
 (Enter /opt/gaussian/g16_legacy/l701.exe)
 ... and contract with generalized density number  2.
 Compute integral first derivatives.
 Leave Link  701 at Fri Sep 17 16:02:56 2021, MaxMem=   524288000 cpu:               0.1 elap:               0.2
 (Enter /opt/gaussian/g16_legacy/l702.exe)
 L702 exits ... SP integral derivatives will be done elsewhere.
 Leave Link  702 at Fri Sep 17 16:02:56 2021, MaxMem=   524288000 cpu:               0.0 elap:               0.0
 (Enter /opt/gaussian/g16_legacy/l703.exe)
 Integral derivatives from FoFJK, PRISM(SPDF).
 Compute integral first derivatives, UseDBF=F ICtDFT=           0.
 Calling FoFJK, ICntrl=  10002127 FMM=F ISym2X=0 I1Cent= 0 IOpClX= 0 NMat=1 NMatS=1 NMatT=0.
 FoFJK:  IHMeth= 1 ICntrl=10002127 DoSepK=F KAlg= 0 I1Cent=           0 FoldK=F
 IRaf=         0 NMat=       1 IRICut=       1 DoRegI=T DoRafI=F ISym2E= 0 IDoP0=0 IntGTp=1.
 FoFCou: FMM=F IPFlag=           0 FMFlag=      100000 FMFlg1=         800
         NFxFlg=           0 DoJE=F BraDBF=F KetDBF=F FulRan=T
         wScrn=  0.000000 ICntrl=  10002127 IOpCl=  0 I1Cent=           0 NGrid=           0
         NMat0=    1 NMatS0=      1 NMatT0=    0 NMatD0=    1 NMtDS0=    0 NMtDT0=    0
 Symmetry not used in FoFCou.
 Leave Link  703 at Fri Sep 17 16:03:15 2021, MaxMem=   524288000 cpu:              18.7 elap:              18.8
 (Enter /opt/gaussian/g16_legacy/l716.exe)
 Dipole        = 1.00150006D-01 3.50262050D-02 3.55135455D-03
 ***** Axes restored to original set *****
 -------------------------------------------------------------------
 Center     Atomic                   Forces (Hartrees/Bohr)
 Number     Number              X              Y              Z
 -------------------------------------------------------------------
      1        6          -0.008511637    0.002699034    0.001792958
      2        1           0.000898442   -0.003880749    0.000321430
      3        1           0.000999987   -0.003732471    0.002166568
      4        6          -0.004436884    0.003346420   -0.002604265
      5        6          -0.002593354   -0.001332116    0.000418251
      6        1           0.003389037    0.001711454    0.001601230
      7        1           0.001806368   -0.002792906    0.000631572
      8        1          -0.000654495    0.002255031   -0.002369489
      9        6           0.002364168   -0.002696481   -0.000904756
     10        1           0.002740932   -0.000149281   -0.002225208
     11        6           0.001559308    0.001090845    0.002138237
     12        1          -0.000388470    0.003380983   -0.000836185
     13        1           0.001359448   -0.001243289    0.002868107
     14        1          -0.002771431   -0.000502171   -0.002000227
     15        6          -0.000429609    0.002123063    0.002537545
     16        1          -0.000372042    0.002506833   -0.002206609
     17        1          -0.001740425   -0.002712388   -0.002881559
     18        1           0.002219784   -0.002573963    0.000956895
     19        6          -0.001079339    0.004712302    0.002611654
     20        6          -0.004099922   -0.002060483   -0.000909288
     21        1           0.002387066    0.000869546    0.002380607
     22        1          -0.000299497    0.002035863   -0.002351782
     23        1           0.001750312   -0.002198628    0.002358938
     24        6          -0.000602993   -0.004848847    0.001602267
     25        1           0.001805575   -0.000114755   -0.002833260
     26        6           0.007584822   -0.001167529    0.000886678
     27        1          -0.000387491    0.003150647   -0.000391393
     28        1          -0.002497661    0.002124036   -0.002758915
 -------------------------------------------------------------------
 Cartesian Forces:  Max     0.008511637 RMS     0.002539366
 Leave Link  716 at Fri Sep 17 16:03:15 2021, MaxMem=   524288000 cpu:               0.0 elap:               0.0
 (Enter /opt/gaussian/g16_legacy/l103.exe)

 GradGradGradGradGradGradGradGradGradGradGradGradGradGradGradGradGradGrad
 Berny optimization.
 FormGI is forming the generalized inverse of G from B-inverse, IUseBI=4.
 Internal  Forces:  Max     0.004126304 RMS     0.001892750
 Search for a local minimum.
 Step number   1 out of a maximum of  138
 All quantities printed in internal units (Hartrees-Bohrs-Radians)
 RMS Force = .18928D-02 SwitMx=.10000D-02 MixMth= 1
 Mixed Optimization -- RFO/linear search
 Second derivative matrix not updated -- first step.
 ITU=  0
     Eigenvalues ---    0.00343   0.00570   0.00667   0.00679   0.00692
     Eigenvalues ---    0.00715   0.00820   0.01219   0.01287   0.01570
     Eigenvalues ---    0.01642   0.02780   0.02785   0.04014   0.04133
     Eigenvalues ---    0.05350   0.05403   0.06981   0.07039   0.07087
     Eigenvalues ---    0.07092   0.07265   0.07301   0.07347   0.07505
     Eigenvalues ---    0.09278   0.09366   0.12769   0.12846   0.15999
     Eigenvalues ---    0.15999   0.16000   0.16000   0.16000   0.16000
     Eigenvalues ---    0.16000   0.16000   0.16000   0.16000   0.16000
     Eigenvalues ---    0.16000   0.16000   0.16000   0.21859   0.21867
     Eigenvalues ---    0.22000   0.22000   0.24993   0.24996   0.24998
     Eigenvalues ---    0.24999   0.29239   0.30871   0.31608   0.31697
     Eigenvalues ---    0.31800   0.31976   0.32811   0.33864   0.33925
     Eigenvalues ---    0.34061   0.34196   0.34227   0.34233   0.34245
     Eigenvalues ---    0.34248   0.34248   0.34257   0.34269   0.34290
     Eigenvalues ---    0.34302   0.34333   0.34543   0.34552   0.34793
     Eigenvalues ---    0.34849   0.55499   0.55591
 RFO step:  Lambda=-2.86801451D-03 EMin= 3.42518234D-03
 Linear search not attempted -- first point.
 Iteration  1 RMS(Cart)=  0.04041355 RMS(Int)=  0.00070760
 Iteration  2 RMS(Cart)=  0.00101776 RMS(Int)=  0.00015616
 Iteration  3 RMS(Cart)=  0.00000056 RMS(Int)=  0.00015616
 ITry= 1 IFail=0 DXMaxC= 1.43D-01 DCOld= 1.00D+10 DXMaxT= 3.00D-01 DXLimC= 3.00D+00 Rises=F
 Variable       Old X    -DE/DX   Delta X   Delta X   Delta X     New X
                                 (Linear)    (Quad)   (Total)
    R1        2.07227  -0.00295   0.00000  -0.00858  -0.00858   2.06369
    R2        2.07559  -0.00309   0.00000  -0.00905  -0.00905   2.06654
    R3        2.86259  -0.00348   0.00000  -0.01117  -0.01117   2.85141
    R4        2.89508   0.00160   0.00000   0.00543   0.00543   2.90051
    R5        2.84867  -0.00062   0.00000  -0.00194  -0.00194   2.84673
    R6        2.54691  -0.00390   0.00000  -0.00699  -0.00699   2.53993
    R7        2.06949  -0.00371   0.00000  -0.01075  -0.01075   2.05874
    R8        2.06919  -0.00217   0.00000  -0.00629  -0.00629   2.06290
    R9        2.06843  -0.00173   0.00000  -0.00500  -0.00500   2.06343
   R10        2.05920  -0.00216   0.00000  -0.00615  -0.00615   2.05305
   R11        2.82685   0.00312   0.00000   0.00943   0.00943   2.83629
   R12        2.06899  -0.00268   0.00000  -0.00777  -0.00777   2.06122
   R13        2.06771  -0.00161   0.00000  -0.00464  -0.00464   2.06307
   R14        2.06408  -0.00305   0.00000  -0.00875  -0.00875   2.05533
   R15        2.06914  -0.00199   0.00000  -0.00577  -0.00577   2.06337
   R16        2.06938  -0.00393   0.00000  -0.01138  -0.01138   2.05800
   R17        2.06913  -0.00200   0.00000  -0.00579  -0.00579   2.06334
   R18        2.84702  -0.00079   0.00000  -0.00246  -0.00246   2.84456
   R19        2.84189  -0.00048   0.00000  -0.00149  -0.00149   2.84040
   R20        2.54611  -0.00316   0.00000  -0.00565  -0.00565   2.54046
   R21        2.06424  -0.00291   0.00000  -0.00835  -0.00835   2.05589
   R22        2.06879  -0.00186   0.00000  -0.00539  -0.00539   2.06340
   R23        2.07001  -0.00269   0.00000  -0.00779  -0.00779   2.06222
   R24        2.06012  -0.00203   0.00000  -0.00579  -0.00579   2.05433
   R25        2.84511  -0.00141   0.00000  -0.00440  -0.00440   2.84071
   R26        2.06823  -0.00234   0.00000  -0.00675  -0.00675   2.06148
   R27        2.07457  -0.00280   0.00000  -0.00820  -0.00820   2.06637
    A1        1.82995   0.00206   0.00000   0.02219   0.02203   1.85197
    A2        1.93121  -0.00017   0.00000   0.00559   0.00562   1.93682
    A3        1.91982  -0.00201   0.00000  -0.01377  -0.01381   1.90601
    A4        1.90132  -0.00008   0.00000   0.00125   0.00125   1.90257
    A5        1.91820  -0.00275   0.00000  -0.02408  -0.02411   1.89409
    A6        1.95890   0.00286   0.00000   0.00933   0.00937   1.96826
    A7        2.00712   0.00173   0.00000   0.00716   0.00662   2.01373
    A8        2.17223  -0.00413   0.00000  -0.01594  -0.01645   2.15578
    A9        2.10363   0.00241   0.00000   0.00993   0.00938   2.11301
   A10        1.95935  -0.00267   0.00000  -0.01344  -0.01340   1.94595
   A11        1.92474   0.00166   0.00000   0.00909   0.00911   1.93386
   A12        1.92853   0.00227   0.00000   0.01211   0.01214   1.94066
   A13        1.87752   0.00112   0.00000   0.01039   0.01042   1.88794
   A14        1.87684   0.00056   0.00000   0.00561   0.00565   1.88250
   A15        1.89468  -0.00306   0.00000  -0.02459  -0.02459   1.87009
   A16        2.06930  -0.00196   0.00000  -0.01347  -0.01349   2.05581
   A17        2.22589  -0.00182   0.00000  -0.00812  -0.00814   2.21775
   A18        1.98787   0.00378   0.00000   0.02177   0.02175   2.00962
   A19        1.91012   0.00236   0.00000   0.01548   0.01542   1.92555
   A20        1.91736   0.00385   0.00000   0.02269   0.02265   1.94001
   A21        1.98086  -0.00284   0.00000  -0.01748  -0.01740   1.96346
   A22        1.88713  -0.00306   0.00000  -0.01874  -0.01891   1.86822
   A23        1.87267   0.00046   0.00000   0.00458   0.00464   1.87731
   A24        1.89308  -0.00096   0.00000  -0.00761  -0.00752   1.88556
   A25        1.87881   0.00092   0.00000   0.00792   0.00795   1.88676
   A26        1.89483  -0.00313   0.00000  -0.02541  -0.02540   1.86943
   A27        1.92343   0.00175   0.00000   0.00881   0.00883   1.93226
   A28        1.87928   0.00091   0.00000   0.00927   0.00931   1.88859
   A29        1.96062  -0.00277   0.00000  -0.01389  -0.01385   1.94677
   A30        1.92487   0.00222   0.00000   0.01245   0.01248   1.93735
   A31        1.99472   0.00146   0.00000   0.00582   0.00580   2.00051
   A32        2.10557   0.00189   0.00000   0.00752   0.00749   2.11306
   A33        2.18285  -0.00335   0.00000  -0.01323  -0.01325   2.16960
   A34        1.97925  -0.00211   0.00000  -0.00953  -0.00952   1.96973
   A35        1.92167   0.00225   0.00000   0.01139   0.01141   1.93309
   A36        1.92095  -0.00001   0.00000  -0.00101  -0.00099   1.91996
   A37        1.88476   0.00022   0.00000   0.00331   0.00333   1.88810
   A38        1.86363   0.00194   0.00000   0.01654   0.01656   1.88018
   A39        1.89070  -0.00237   0.00000  -0.02149  -0.02147   1.86922
   A40        2.06739  -0.00180   0.00000  -0.01217  -0.01257   2.05482
   A41        2.22775  -0.00176   0.00000  -0.00774  -0.00815   2.21961
   A42        1.98791   0.00357   0.00000   0.02073   0.02031   2.00822
   A43        1.94439   0.00331   0.00000   0.01375   0.01379   1.95818
   A44        1.93092  -0.00167   0.00000  -0.01698  -0.01706   1.91386
   A45        1.91626  -0.00337   0.00000  -0.02307  -0.02327   1.89300
   A46        1.94487  -0.00130   0.00000  -0.00744  -0.00738   1.93749
   A47        1.88202   0.00136   0.00000   0.02220   0.02232   1.90435
   A48        1.84183   0.00155   0.00000   0.01187   0.01161   1.85345
    D1        2.64807   0.00158   0.00000   0.05499   0.05480   2.70287
    D2       -0.47174   0.00063   0.00000  -0.00604  -0.00582  -0.47756
    D3        0.64511  -0.00075   0.00000   0.02450   0.02427   0.66938
    D4       -2.47469  -0.00170   0.00000  -0.03653  -0.03636  -2.51105
    D5       -1.48327   0.00090   0.00000   0.04795   0.04777  -1.43550
    D6        1.68011  -0.00005   0.00000  -0.01308  -0.01286   1.66725
    D7       -0.96548  -0.00055   0.00000  -0.01729  -0.01729  -0.98277
    D8       -3.13912  -0.00005   0.00000  -0.00515  -0.00511   3.13895
    D9        1.11815   0.00105   0.00000   0.00406   0.00388   1.12204
   D10        1.04075  -0.00078   0.00000  -0.01206  -0.01198   1.02877
   D11       -1.13289  -0.00027   0.00000   0.00008   0.00020  -1.13269
   D12        3.12438   0.00082   0.00000   0.00929   0.00919   3.13358
   D13       -3.12371  -0.00088   0.00000  -0.02104  -0.02098   3.13850
   D14        0.98584  -0.00038   0.00000  -0.00890  -0.00880   0.97703
   D15       -1.04007   0.00072   0.00000   0.00031   0.00019  -1.03988
   D16       -3.13140  -0.00068   0.00000  -0.04802  -0.04832   3.10347
[...]
                 (A) (A) (A) (A) (A) (A) (A) (A) (A) (A) (A) (A)
                 (A) (A) (A) (A) (A) (A) (A) (A) (A) (A) (A) (A)
                 (A) (A) (A) (A) (A) (A) (A) (A) (A) (A) (A) (A)
                 (A) (A) (A) (A) (A) (A) (A) (A) (A) (A) (A) (A)
                 (A) (A) (A) (A) (A) (A) (A) (A) (A) (A) (A) (A)
                 (A) (A) (A) (A) (A) (A) (A) (A) (A) (A) (A) (A)
                 (A) (A) (A) (A) (A) (A) (A) (A) (A) (A) (A) (A)
                 (A) (A) (A) (A) (A) (A) (A) (A) (A) (A) (A) (A)
                 (A) (A) (A) (A) (A) (A) (A) (A) (A) (A) (A) (A)
                 (A) (A) (A) (A) (A) (A) (A) (A) (A) (A) (A) (A)
                 (A) (A) (A) (A) (A) (A) (A) (A) (A) (A) (A) (A)
                 (A) (A) (A) (A) (A) (A) (A) (A) (A) (A) (A) (A)
                 (A) (A) (A) (A) (A) (A) (A) (A) (A) (A) (A) (A)
                 (A) (A) (A) (A) (A) (A) (A) (A) (A) (A) (A) (A)
                 (A) (A) (A) (A) (A) (A) (A) (A) (A)
 The electronic state is 1-A.
 Alpha  occ. eigenvalues --  -11.23028 -11.22456 -11.21863 -11.21726 -11.21721
 Alpha  occ. eigenvalues --  -11.21541 -11.21497 -11.21449 -11.21393 -11.21358
 Alpha  occ. eigenvalues --   -1.10803  -1.08495  -1.01828  -0.98138  -0.93839
 Alpha  occ. eigenvalues --   -0.91936  -0.86954  -0.82861  -0.70567  -0.69489
 Alpha  occ. eigenvalues --   -0.64754  -0.61539  -0.60720  -0.58828  -0.58414
 Alpha  occ. eigenvalues --   -0.56814  -0.55405  -0.54979  -0.53298  -0.52217
 Alpha  occ. eigenvalues --   -0.51714  -0.51214  -0.50653  -0.50166  -0.47383
 Alpha  occ. eigenvalues --   -0.46917  -0.44458  -0.33328  -0.31563
 Alpha virt. eigenvalues --    0.18100   0.19932   0.22053   0.24536   0.24955
 Alpha virt. eigenvalues --    0.27424   0.28601   0.28877   0.30353   0.30694
 Alpha virt. eigenvalues --    0.31966   0.32601   0.32969   0.33726   0.34466
 Alpha virt. eigenvalues --    0.35524   0.36421   0.37370   0.38662   0.39972
 Alpha virt. eigenvalues --    0.40998   0.42095   0.42777   0.44262   0.45477
 Alpha virt. eigenvalues --    0.51938   0.54227   0.61292   0.62632   0.69521
 Alpha virt. eigenvalues --    0.71676   0.71855   0.74127   0.75627   0.76300
 Alpha virt. eigenvalues --    0.77310   0.78587   0.80192   0.80428   0.82510
 Alpha virt. eigenvalues --    0.83060   0.85963   0.89706   0.90634   0.91906
 Alpha virt. eigenvalues --    0.92727   0.94246   0.96733   0.97890   0.99038
 Alpha virt. eigenvalues --    0.99663   1.01316   1.02330   1.04636   1.06421
 Alpha virt. eigenvalues --    1.06946   1.08561   1.08610   1.11036   1.12563
 Alpha virt. eigenvalues --    1.13528   1.14242   1.14315   1.15516   1.15561
 Alpha virt. eigenvalues --    1.15995   1.16443   1.18511   1.18881   1.20423
 Alpha virt. eigenvalues --    1.21361   1.22874   1.23837   1.26678   1.27279
 Alpha virt. eigenvalues --    1.29587   1.40505   1.41229   1.45131   1.46302
 Alpha virt. eigenvalues --    1.47303   1.54539   1.56916   1.57904   1.58162
 Alpha virt. eigenvalues --    1.61580   1.62900   1.65166   1.67986   1.70099
 Alpha virt. eigenvalues --    1.73688   1.82808   1.91104   1.92024   1.96649
 Alpha virt. eigenvalues --    1.98629   2.01394   2.02264   2.04662   2.08570
 Alpha virt. eigenvalues --    2.09659   2.11023   2.11867   2.13286   2.14333
 Alpha virt. eigenvalues --    2.15615   2.17830   2.19386   2.23464   2.28302
 Alpha virt. eigenvalues --    2.29342   2.30634   2.33018   2.35331   2.35655
 Alpha virt. eigenvalues --    2.35947   2.36091   2.39306   2.40246   2.40800
 Alpha virt. eigenvalues --    2.42218   2.43338   2.43738   2.45452   2.46063
 Alpha virt. eigenvalues --    2.47468   2.49490   2.50160   2.50478   2.53353
 Alpha virt. eigenvalues --    2.56171   2.59443   2.61268   2.62977   2.65059
 Alpha virt. eigenvalues --    2.67062   2.68311   2.71449   2.72617   2.74255
 Alpha virt. eigenvalues --    2.76086   2.77474   2.80595   2.82947   2.83712
 Alpha virt. eigenvalues --    2.86556   2.90534   2.92645   2.94406   2.94575
 Alpha virt. eigenvalues --    2.97681   2.98672   3.01242   3.02716   3.05048
 Alpha virt. eigenvalues --    3.06983   3.08131   3.09712   3.12652   3.17075
 Alpha virt. eigenvalues --    3.17580   3.18813   3.20184   3.20611   3.22303
 Alpha virt. eigenvalues --    3.23445   3.25849   3.26685   3.27777   3.38376
 Alpha virt. eigenvalues --    3.40097   3.45764   3.46979   3.56086   3.58279
 Alpha virt. eigenvalues --    3.59222   3.61997   3.68641   3.74872   3.78914
 Alpha virt. eigenvalues --    3.79698   3.81279   3.82681   3.83341   3.84006
 Alpha virt. eigenvalues --    3.84104   3.86511   3.88184   3.89137   3.91421
 Alpha virt. eigenvalues --    3.97579   4.59401   4.62757   4.74521   4.82179
 Alpha virt. eigenvalues --    4.89167   4.92294   4.93230   5.07407   5.10903
 Alpha virt. eigenvalues --    5.17835
          Condensed to atoms (all electrons):
               1          2          3          4          5          6
     1  C    5.003997   0.413411   0.412745   0.339222  -0.057161   0.003819
     2  H    0.413411   0.576310  -0.028359  -0.039654   0.003215  -0.000111
     3  H    0.412745  -0.028359   0.584867  -0.045647  -0.004621   0.000114
     4  C    0.339222  -0.039654  -0.045647   4.951262   0.352880  -0.042642
     5  C   -0.057161   0.003215  -0.004621   0.352880   4.891657   0.407271
     6  H    0.003819  -0.000111   0.000114  -0.042642   0.407271   0.568320
     7  H   -0.003571  -0.000037   0.002410  -0.041600   0.397676  -0.026708
     8  H   -0.000045  -0.000012  -0.000557  -0.045807   0.400489  -0.027516
     9  C   -0.046575  -0.001941   0.002347   0.696859  -0.046080  -0.002982
    10  H    0.003280   0.000029  -0.000115  -0.037937  -0.006573   0.002347
    11  C   -0.007739  -0.002699   0.000152  -0.049997   0.003357   0.000133
    12  H    0.000295  -0.000067  -0.000013  -0.000357  -0.000097  -0.000005
    13  H    0.000167   0.000160   0.000018  -0.000541  -0.000105  -0.000006
    14  H   -0.002166  -0.001508   0.000038  -0.000577   0.000102   0.000005
    15  C   -0.000102  -0.000001  -0.000045   0.000002  -0.000000   0.000000
    16  H   -0.000005   0.000000   0.000002   0.000000  -0.000000   0.000000
    17  H   -0.000003   0.000002  -0.000002   0.000000  -0.000000  -0.000000
    18  H    0.000024  -0.000001  -0.000008  -0.000000   0.000000  -0.000000
    19  C   -0.004098   0.000622   0.001256  -0.000004   0.000007  -0.000000
    20  C    0.000549  -0.000016   0.000191  -0.000019  -0.000025   0.000000
    21  H   -0.000058  -0.000011   0.000094  -0.000061   0.000096  -0.000001
    22  H   -0.000041   0.000000   0.000017   0.000001  -0.000000   0.000000
    23  H    0.000120  -0.000001  -0.000099  -0.000004   0.000001  -0.000000
    24  C   -0.062090  -0.001230   0.000057   0.006210  -0.000074   0.000002
    25  H   -0.000091   0.001049   0.000171  -0.000105  -0.000002   0.000000
    26  C    0.331129  -0.042384  -0.045730  -0.055684  -0.001011  -0.000108
    27  H   -0.042601   0.004316  -0.002340  -0.002245  -0.000436  -0.000040
    28  H   -0.046716  -0.002896   0.004692  -0.001441   0.000280  -0.000004
               7          8          9         10         11         12
     1  C   -0.003571  -0.000045  -0.046575   0.003280  -0.007739   0.000295
     2  H   -0.000037  -0.000012  -0.001941   0.000029  -0.002699  -0.000067
     3  H    0.002410  -0.000557   0.002347  -0.000115   0.000152  -0.000013
     4  C   -0.041600  -0.045807   0.696859  -0.037937  -0.049997  -0.000357
     5  C    0.397676   0.400489  -0.046080  -0.006573   0.003357  -0.000097
     6  H   -0.026708  -0.027516  -0.002982   0.002347   0.000133  -0.000005
     7  H    0.591603  -0.037732  -0.000465   0.000218  -0.000104  -0.000004
     8  H   -0.037732   0.599593  -0.000883   0.000143  -0.000102   0.000016
     9  C   -0.000465  -0.000883   4.938271   0.404337   0.340912  -0.041711
    10  H    0.000218   0.000143   0.404337   0.559262  -0.041317  -0.001238
    11  C   -0.000104  -0.000102   0.340912  -0.041317   4.898015   0.401889
    12  H   -0.000004   0.000016  -0.041711  -0.001238   0.401889   0.585671
    13  H    0.000017  -0.000004  -0.041774  -0.001163   0.401438  -0.035520
    14  H    0.000001  -0.000002  -0.043875   0.003330   0.409145  -0.029082
    15  C    0.000000  -0.000000  -0.000000   0.000000   0.000000  -0.000000
    16  H    0.000000   0.000000  -0.000000   0.000000  -0.000000  -0.000000
    17  H   -0.000000  -0.000000  -0.000000   0.000000  -0.000000  -0.000000
    18  H   -0.000000   0.000000   0.000000  -0.000000  -0.000000   0.000000
    19  C   -0.000001   0.000021  -0.000003   0.000000   0.000000   0.000000
    20  C   -0.000001  -0.000043  -0.000000  -0.000000  -0.000000  -0.000000
    21  H   -0.000000   0.000361  -0.000001   0.000000  -0.000000   0.000000
    22  H    0.000000  -0.000000   0.000000   0.000000   0.000000  -0.000000
    23  H    0.000000  -0.000001   0.000000  -0.000000   0.000000   0.000000
    24  C    0.000003  -0.000104   0.000036   0.000002  -0.000027  -0.000007
    25  H    0.000000  -0.000000   0.000007  -0.000000  -0.000002  -0.000000
    26  C    0.000075   0.000669  -0.004455  -0.000120   0.000509   0.000149
    27  H    0.000058  -0.000466   0.000648   0.000001  -0.000030  -0.000000
    28  H    0.000005  -0.000003   0.001236  -0.000038   0.000051  -0.000081
              13         14         15         16         17         18
     1  C    0.000167  -0.002166  -0.000102  -0.000005  -0.000003   0.000024
     2  H    0.000160  -0.001508  -0.000001   0.000000   0.000002  -0.000001
     3  H    0.000018   0.000038  -0.000045   0.000002  -0.000002  -0.000008
     4  C   -0.000541  -0.000577   0.000002   0.000000   0.000000  -0.000000
     5  C   -0.000105   0.000102  -0.000000  -0.000000  -0.000000   0.000000
     6  H   -0.000006   0.000005   0.000000   0.000000  -0.000000  -0.000000
     7  H    0.000017   0.000001   0.000000   0.000000  -0.000000  -0.000000
     8  H   -0.000004  -0.000002  -0.000000   0.000000  -0.000000   0.000000
     9  C   -0.041774  -0.043875  -0.000000  -0.000000  -0.000000   0.000000
    10  H   -0.001163   0.003330   0.000000   0.000000   0.000000  -0.000000
    11  C    0.401438   0.409145   0.000000  -0.000000  -0.000000  -0.000000
    12  H   -0.035520  -0.029082  -0.000000  -0.000000  -0.000000   0.000000
    13  H    0.584890  -0.027817   0.000000   0.000000  -0.000000  -0.000000
    14  H   -0.027817   0.577276  -0.000000   0.000000   0.000000  -0.000000
    15  C    0.000000  -0.000000   4.900552   0.398829   0.406165   0.398175
    16  H    0.000000   0.000000   0.398829   0.593696  -0.026546  -0.037823
    17  H   -0.000000   0.000000   0.406165  -0.026546   0.565965  -0.026667
    18  H   -0.000000  -0.000000   0.398175  -0.037823  -0.026667   0.594540
    19  C   -0.000000   0.000001   0.353472  -0.044307  -0.041665  -0.043823
    20  C    0.000000   0.000000  -0.065053  -0.001177   0.003789  -0.001990
    21  H   -0.000000   0.000000   0.003758  -0.000032  -0.000115  -0.000068
    22  H    0.000000   0.000000  -0.002204   0.002752  -0.000055  -0.000448
    23  H   -0.000000  -0.000000  -0.002670  -0.000486  -0.000029   0.002769
    24  C    0.000002   0.000064  -0.044228  -0.001279  -0.002577  -0.000470
    25  H   -0.000000   0.000025  -0.006998   0.000188   0.002368   0.000180
    26  C   -0.000037  -0.000554   0.003136  -0.000128   0.000144  -0.000071
    27  H   -0.000000  -0.000004   0.000050   0.000006   0.000007  -0.000004
    28  H    0.000025   0.000016  -0.000091   0.000009  -0.000009  -0.000002
              19         20         21         22         23         24
     1  C   -0.004098   0.000549  -0.000058  -0.000041   0.000120  -0.062090
     2  H    0.000622  -0.000016  -0.000011   0.000000  -0.000001  -0.001230
     3  H    0.001256   0.000191   0.000094   0.000017  -0.000099   0.000057
     4  C   -0.000004  -0.000019  -0.000061   0.000001  -0.000004   0.006210
     5  C    0.000007  -0.000025   0.000096  -0.000000   0.000001  -0.000074
     6  H   -0.000000   0.000000  -0.000001   0.000000  -0.000000   0.000002
     7  H   -0.000001  -0.000001  -0.000000   0.000000   0.000000   0.000003
     8  H    0.000021  -0.000043   0.000361  -0.000000  -0.000001  -0.000104
     9  C   -0.000003  -0.000000  -0.000001   0.000000   0.000000   0.000036
    10  H    0.000000  -0.000000   0.000000   0.000000  -0.000000   0.000002
    11  C    0.000000  -0.000000  -0.000000   0.000000   0.000000  -0.000027
    12  H    0.000000  -0.000000   0.000000  -0.000000   0.000000  -0.000007
    13  H   -0.000000   0.000000  -0.000000   0.000000  -0.000000   0.000002
    14  H    0.000001   0.000000   0.000000   0.000000  -0.000000   0.000064
    15  C    0.353472  -0.065053   0.003758  -0.002204  -0.002670  -0.044228
    16  H   -0.044307  -0.001177  -0.000032   0.002752  -0.000486  -0.001279
    17  H   -0.041665   0.003789  -0.000115  -0.000055  -0.000029  -0.002577
    18  H   -0.043823  -0.001990  -0.000068  -0.000448   0.002769  -0.000470
    19  C    4.915064   0.350683  -0.037727  -0.043642  -0.043358   0.696285
    20  C    0.350683   4.904567   0.406928   0.400306   0.401034  -0.044156
    21  H   -0.037727   0.406928   0.570628  -0.026774  -0.028092  -0.003150
    22  H   -0.043642   0.400306  -0.026774   0.585123  -0.035758  -0.000377
    23  H   -0.043358   0.401034  -0.028092  -0.035758   0.586876  -0.000024
    24  C    0.696285  -0.044156  -0.003150  -0.000377  -0.000024   4.960934
    25  H   -0.038332   0.003541   0.000051  -0.000120  -0.000122   0.403960
    26  C   -0.049354  -0.007949  -0.002567   0.000140   0.000348   0.340992
    27  H    0.000417  -0.002567  -0.001998   0.000086  -0.000063  -0.044503
    28  H    0.001446   0.000178   0.000062   0.000024  -0.000014  -0.041006
              25         26         27         28
     1  C   -0.000091   0.331129  -0.042601  -0.046716
     2  H    0.001049  -0.042384   0.004316  -0.002896
     3  H    0.000171  -0.045730  -0.002340   0.004692
     4  C   -0.000105  -0.055684  -0.002245  -0.001441
     5  C   -0.000002  -0.001011  -0.000436   0.000280
     6  H    0.000000  -0.000108  -0.000040  -0.000004
     7  H    0.000000   0.000075   0.000058   0.000005
     8  H   -0.000000   0.000669  -0.000466  -0.000003
     9  C    0.000007  -0.004455   0.000648   0.001236
    10  H   -0.000000  -0.000120   0.000001  -0.000038
    11  C   -0.000002   0.000509  -0.000030   0.000051
    12  H   -0.000000   0.000149  -0.000000  -0.000081
    13  H   -0.000000  -0.000037  -0.000000   0.000025
    14  H    0.000025  -0.000554  -0.000004   0.000016
    15  C   -0.006998   0.003136   0.000050  -0.000091
    16  H    0.000188  -0.000128   0.000006   0.000009
    17  H    0.002368   0.000144   0.000007  -0.000009
    18  H    0.000180  -0.000071  -0.000004  -0.000002
    19  C   -0.038332  -0.049354   0.000417   0.001446
    20  C    0.003541  -0.007949  -0.002567   0.000178
    21  H    0.000051  -0.002567  -0.001998   0.000062
    22  H   -0.000120   0.000140   0.000086   0.000024
    23  H   -0.000122   0.000348  -0.000063  -0.000014
    24  C    0.403960   0.340992  -0.044503  -0.041006
    25  H    0.558056  -0.040061   0.003267  -0.003353
    26  C   -0.040061   4.977839   0.416251   0.413228
    27  H    0.003267   0.416251   0.582598  -0.028540
    28  H   -0.003353   0.413228  -0.028540   0.579538
 Mulliken charges:
               1
     1  C   -0.235696
     2  H    0.121814
     3  H    0.118365
     4  C    0.017883
     5  C   -0.340845
     6  H    0.118112
     7  H    0.118156
     8  H    0.111985
     9  C   -0.153908
    10  H    0.115552
    11  C   -0.353585
    12  H    0.120162
    13  H    0.120250
    14  H    0.115581
    15  C   -0.342746
    16  H    0.116299
    17  H    0.119226
    18  H    0.115688
    19  C    0.027041
    20  C   -0.348771
    21  H    0.118676
    22  H    0.120971
    23  H    0.119572
    24  C   -0.163245
    25  H    0.116321
    26  C   -0.234395
    27  H    0.118132
    28  H    0.123405
 Sum of Mulliken charges =  -0.00000
 Mulliken charges with hydrogens summed into heavy atoms:
               1
     1  C    0.004483
     4  C    0.017883
     5  C    0.007409
     9  C   -0.038356
    11  C    0.002408
    15  C    0.008468
    19  C    0.027041
    20  C    0.010448
    24  C   -0.046924
    26  C    0.007142
 Electronic spatial extent (au):  <R**2>=           2498.6161
 Charge=             -0.0000 electrons
 Dipole moment (field-independent basis, Debye):
    X=              0.3626    Y=              0.1699    Z=              0.0498  Tot=              0.4035
 Quadrupole moment (field-independent basis, Debye-Ang):
   XX=            -63.7582   YY=            -63.7112   ZZ=            -67.3994
   XY=              1.0617   XZ=              1.2177   YZ=             -0.3674
 Traceless Quadrupole moment (field-independent basis, Debye-Ang):
   XX=              1.1981   YY=              1.2451   ZZ=             -2.4431
   XY=              1.0617   XZ=              1.2177   YZ=             -0.3674
 Octapole moment (field-independent basis, Debye-Ang**2):
  XXX=              2.8324  YYY=             -2.8562  ZZZ=              0.8775  XYY=             -0.7382
  XXY=              1.7309  XXZ=             -2.8066  XZZ=              1.5462  YZZ=              1.4376
  YYZ=              0.7861  XYZ=             -0.4940
 Hexadecapole moment (field-independent basis, Debye-Ang**3):
 XXXX=          -2633.5335 YYYY=           -638.9544 ZZZZ=           -166.0438 XXXY=             10.5034
 XXXZ=             13.5605 YYYX=             -7.0822 YYYZ=             -1.6738 ZZZX=              4.0400
 ZZZY=              2.3776 XXYY=           -550.6718 XXZZ=           -483.2675 YYZZ=           -131.1157
 XXYZ=             -4.5757 YYXZ=              2.5312 ZZXY=              7.7339
 N-N= 5.156965217545D+02 E-N=-1.936106409235D+03  KE= 3.887456767392D+02
 No NMR shielding tensors so no spin-rotation constants.
 Leave Link  601 at Fri Sep 17 17:02:27 2021, MaxMem=   524288000 cpu:               0.2 elap:               0.4
 (Enter /opt/gaussian/g16_legacy/l9999.exe)
 1\1\GINC-TRUENO92\FOpt\RMP2-FC\6-31G(d,p)\C10H18\JRAMOS\17-Sep-2021\0\
 \#p opt mp2/6-31g(d,p)\\Conformer number 534. Energy MM = 23.287 kcal/
 mol\\0,1\C,-0.8160481549,0.5488649822,-0.0009601314\H,-0.8064366822,1.
 4412967362,0.6271897816\H,-0.5468555589,0.880199747,-1.0077217288\C,-2
 .1826127342,-0.087851114,-0.0308190566\C,-2.5184512786,-0.8312399293,-
 1.2953640854\H,-3.4840921035,-1.3299538374,-1.222378717\H,-2.547311235
 1,-0.1510184431,-2.1493706046\H,-1.7628255558,-1.5880538347,-1.5180144
 561\C,-3.0450169002,-0.0558407977,1.0021413679\H,-3.9937582771,-0.5715
 39247,0.881522675\C,-2.8448406355,0.6191338179,2.3249642682\H,-2.91281
 69611,-0.1037395595,3.1399887354\H,-3.6175868976,1.369813199,2.5009799
 145\H,-1.876861826,1.1092759043,2.3981510348\C,3.8944872057,0.80731556
 99,-0.3160748503\H,4.7290205415,0.1024958831,-0.307511309\H,3.93634100
 88,1.3969283569,0.5984441206\H,4.0549715989,1.4773891297,-1.1636786147
 \C,2.5834717982,0.0821638984,-0.4465702506\C,2.4523039989,-0.760077763
 9,-1.6852292976\H,1.4806641569,-1.2395209607,-1.7723428518\H,3.2196814
 919,-1.5371860445,-1.7030257075\H,2.6046343865,-0.1456961263,-2.575143
 8985\C,1.6307436375,0.2020165386,0.4971612665\H,1.8398019998,0.8601102
 955,1.3369875749\C,0.2688783081,-0.4261962721,0.4954705389\H,0.2510155
 338,-1.3277342909,-0.1182812738\H,0.0095991342,-0.7411558376,1.5095855
 556\\Version=EM64L-G16RevA.03\State=1-A\HF=-389.1568792\MP2=-390.57355
 3\RMSD=2.380e-09\RMSF=3.809e-06\Dipole=0.091463,-0.0061396,-0.0688871\
 PG=C01 [X(C10H18)]\\@


 HE THAT RISETH LATE MUST TROT ALL DAY.

                  -- BENJAMIN FRANKLIN
 Job cpu time:       0 days  1 hours  2 minutes 49.8 seconds.
 Elapsed time:       0 days  1 hours  2 minutes 56.7 seconds.
 File lengths (MBytes):  RWF=     32 Int=      0 D2E=      0 Chk=      7 Scr=      1
 Normal termination of Gaussian 16 at Fri Sep 17 17:02:27 2021.
