 Entering Gaussian System, Link 0=/opt/gaussian/g16_legacy/g16
 Input=01-IsoP_1348_gaussian.com
 Output=01-IsoP_1348_gaussian.log
 Initial command:
 /opt/gaussian/g16_legacy/l1.exe "/scratch-local/jramos/2661324/Gau-2461.inp" -scrdir="/scratch-local/jramos/2661324/"
 Entering Link 1 = /opt/gaussian/g16_legacy/l1.exe PID=      2463.
  
 Copyright (c) 1988,1990,1992,1993,1995,1998,2003,2009,2016,
            Gaussian, Inc.  All Rights Reserved.
  
 This is part of the Gaussian(R) 16 program.  It is based on
 the Gaussian(R) 09 system (copyright 2009, Gaussian, Inc.),
 the Gaussian(R) 03 system (copyright 2003, Gaussian, Inc.),
 the Gaussian(R) 98 system (copyright 1998, Gaussian, Inc.),
 the Gaussian(R) 94 system (copyright 1995, Gaussian, Inc.),
 the Gaussian 92(TM) system (copyright 1992, Gaussian, Inc.),
 the Gaussian 90(TM) system (copyright 1990, Gaussian, Inc.),
 the Gaussian 88(TM) system (copyright 1988, Gaussian, Inc.),
 the Gaussian 86(TM) system (copyright 1986, Carnegie Mellon
 University), and the Gaussian 82(TM) system (copyright 1983,
 Carnegie Mellon University). Gaussian is a federally registered
 trademark of Gaussian, Inc.
  
 This software contains proprietary and confidential information,
 including trade secrets, belonging to Gaussian, Inc.
  
 This software is provided under written license and may be
 used, copied, transmitted, or stored only in accord with that
 written license.
  
 The following legend is applicable only to US Government
 contracts under FAR:
  
                    RESTRICTED RIGHTS LEGEND
  
 Use, reproduction and disclosure by the US Government is
 subject to restrictions as set forth in subparagraphs (a)
 and (c) of the Commercial Computer Software - Restricted
 Rights clause in FAR 52.227-19.
  
 Gaussian, Inc.
 340 Quinnipiac St., Bldg. 40, Wallingford CT 06492
  
  
 ---------------------------------------------------------------
 Warning -- This program may not be used in any manner that
 competes with the business of Gaussian, Inc. or will provide
 assistance to any competitor of Gaussian, Inc.  The licensee
 of this program is prohibited from giving any competitor of
 Gaussian, Inc. access to this program.  By using this program,
 the user acknowledges that Gaussian, Inc. is engaged in the
 business of creating and licensing software in the field of
 computational chemistry and represents and warrants to the
 licensee that it is not a competitor of Gaussian, Inc. and that
 it will not use this program in any manner prohibited above.
 ---------------------------------------------------------------
  

 Cite this work as:
 Gaussian 16, Revision A.03,
 M. J. Frisch, G. W. Trucks, H. B. Schlegel, G. E. Scuseria, 
 M. A. Robb, J. R. Cheeseman, G. Scalmani, V. Barone, 
 G. A. Petersson, H. Nakatsuji, X. Li, M. Caricato, A. V. Marenich, 
 J. Bloino, B. G. Janesko, R. Gomperts, B. Mennucci, H. P. Hratchian, 
 J. V. Ortiz, A. F. Izmaylov, J. L. Sonnenberg, D. Williams-Young, 
 F. Ding, F. Lipparini, F. Egidi, J. Goings, B. Peng, A. Petrone, 
 T. Henderson, D. Ranasinghe, V. G. Zakrzewski, J. Gao, N. Rega, 
 G. Zheng, W. Liang, M. Hada, M. Ehara, K. Toyota, R. Fukuda, 
 J. Hasegawa, M. Ishida, T. Nakajima, Y. Honda, O. Kitao, H. Nakai, 
 T. Vreven, K. Throssell, J. A. Montgomery, Jr., J. E. Peralta, 
 F. Ogliaro, M. J. Bearpark, J. J. Heyd, E. N. Brothers, K. N. Kudin, 
 V. N. Staroverov, T. A. Keith, R. Kobayashi, J. Normand, 
 K. Raghavachari, A. P. Rendell, J. C. Burant, S. S. Iyengar, 
 J. Tomasi, M. Cossi, J. M. Millam, M. Klene, C. Adamo, R. Cammi, 
 J. W. Ochterski, R. L. Martin, K. Morokuma, O. Farkas, 
 J. B. Foresman, and D. J. Fox, Gaussian, Inc., Wallingford CT, 2016.
 
 ******************************************
 Gaussian 16:  EM64L-G16RevA.03 25-Dec-2016
                17-Sep-2021 
 ******************************************
 %chk=01-IsoP_1348_gaussian.chk
 %nproc=1
 Will use up to    1 processors via shared memory.
 %mem=4000Mb
 ---------------------
 #p opt mp2/6-31g(d,p)
 ---------------------
 1/18=20,19=15,38=1/1,3;
 2/9=110,12=2,17=6,18=5,40=1/2;
 3/5=1,6=6,7=101,11=9,25=1,30=1,71=1/1,2,3;
 4//1;
 5/5=2,38=5/2;
 8/6=4,10=2/1;
 9/15=2,16=-3/6;
 10/5=1/2;
 6/7=2,8=2,9=2,10=2/1;
 7/12=2/1,2,3,16;
 1/18=20,19=15/3(2);
 2/9=110/2;
 99//99;
 2/9=110/2;
 3/5=1,6=6,7=101,11=9,25=1,30=1,71=1/1,2,3;
 4/5=5,16=3,69=1/1;
 5/5=2,38=5/2;
 8/6=4,10=2/1;
 9/15=2,16=-3/6;
 10/5=1/2;
 7/12=2/1,2,3,16;
 1/18=20,19=15/3(-8);
 2/9=110/2;
 6/7=2,8=2,9=2,10=2/1;
 99//99;
 Leave Link    1 at Fri Sep 17 13:32:33 2021, MaxMem=   524288000 cpu:               0.0 elap:               0.2
 (Enter /opt/gaussian/g16_legacy/l101.exe)
 --------------------------------------------------
 Conformer number 1348. Energy MM = 23.287 kcal/mol
 --------------------------------------------------
 Symbolic Z-matrix:
 Charge =  0 Multiplicity = 1
 C                     0.7118   -0.2991    0.3779 
 H                     0.809    -1.3869    0.4768 
 H                     0.1375    0.0137    1.2603 
 C                     2.073     0.3646    0.4165 
 C                     2.0791    1.775     0.9485 
 H                     1.453     2.4221    0.3261 
 H                     1.692     1.7961    1.9725 
 H                     3.0852    2.2073    0.9663 
 C                     3.2222   -0.2298    0.0391 
 H                     4.1525    0.3304    0.1292 
 C                     3.3943   -1.6032   -0.5284 
 H                     3.9694   -1.5438   -1.4582 
 H                     3.9499   -2.2295    0.176 
 H                     2.4497   -2.0994   -0.7618 
 C                    -2.8551    1.3267   -0.2893 
 H                    -3.4605    1.3641    0.6229 
 H                    -3.3952    1.8531   -1.0828 
 H                    -1.9369    1.8808   -0.0812 
 C                    -2.6127   -0.1025   -0.6893 
 C                    -3.8629   -0.9359   -0.7991 
 H                    -4.3825   -0.9697    0.1641 
 H                    -4.5394   -0.5063   -1.5453 
 H                    -3.6504   -1.9676   -1.0985 
 C                    -1.4027   -0.6449   -0.9285 
 H                    -1.3502   -1.7009   -1.1943 
 C                    -0.0641    0.0435   -0.8979 
 H                     0.5034   -0.2856   -1.778 
 H                    -0.1695    1.1276   -1.0059 
 
 ITRead=  0  0  0  0  0  0  0  0  0  0  0  0  0  0  0  0  0  0  0  0
 ITRead=  0  0  0  0  0  0  0  0
 MicOpt= -1 -1 -1 -1 -1 -1 -1 -1 -1 -1 -1 -1 -1 -1 -1 -1 -1 -1 -1 -1
 MicOpt= -1 -1 -1 -1 -1 -1 -1 -1
 NAtoms=     28 NQM=       28 NQMF=       0 NMMI=      0 NMMIF=      0
                NMic=       0 NMicF=      0.
                    Isotopes and Nuclear Properties:
 (Nuclear quadrupole moments (NQMom) in fm**2, nuclear magnetic moments (NMagM)
  in nuclear magnetons)

  Atom         1           2           3           4           5           6           7           8           9          10
 IAtWgt=          12           1           1          12          12           1           1           1          12           1
 AtmWgt=  12.0000000   1.0078250   1.0078250  12.0000000  12.0000000   1.0078250   1.0078250   1.0078250  12.0000000   1.0078250
 NucSpn=           0           1           1           0           0           1           1           1           0           1
 AtZEff=  -0.0000000  -0.0000000  -0.0000000  -0.0000000  -0.0000000  -0.0000000  -0.0000000  -0.0000000  -0.0000000  -0.0000000
 NQMom=    0.0000000   0.0000000   0.0000000   0.0000000   0.0000000   0.0000000   0.0000000   0.0000000   0.0000000   0.0000000
 NMagM=    0.0000000   2.7928460   2.7928460   0.0000000   0.0000000   2.7928460   2.7928460   2.7928460   0.0000000   2.7928460
 AtZNuc=   6.0000000   1.0000000   1.0000000   6.0000000   6.0000000   1.0000000   1.0000000   1.0000000   6.0000000   1.0000000

  Atom        11          12          13          14          15          16          17          18          19          20
 IAtWgt=          12           1           1           1          12           1           1           1          12          12
 AtmWgt=  12.0000000   1.0078250   1.0078250   1.0078250  12.0000000   1.0078250   1.0078250   1.0078250  12.0000000  12.0000000
 NucSpn=           0           1           1           1           0           1           1           1           0           0
 AtZEff=  -0.0000000  -0.0000000  -0.0000000  -0.0000000  -0.0000000  -0.0000000  -0.0000000  -0.0000000  -0.0000000  -0.0000000
 NQMom=    0.0000000   0.0000000   0.0000000   0.0000000   0.0000000   0.0000000   0.0000000   0.0000000   0.0000000   0.0000000
 NMagM=    0.0000000   2.7928460   2.7928460   2.7928460   0.0000000   2.7928460   2.7928460   2.7928460   0.0000000   0.0000000
 AtZNuc=   6.0000000   1.0000000   1.0000000   1.0000000   6.0000000   1.0000000   1.0000000   1.0000000   6.0000000   6.0000000

  Atom        21          22          23          24          25          26          27          28
 IAtWgt=           1           1           1          12           1          12           1           1
 AtmWgt=   1.0078250   1.0078250   1.0078250  12.0000000   1.0078250  12.0000000   1.0078250   1.0078250
 NucSpn=           1           1           1           0           1           0           1           1
 AtZEff=  -0.0000000  -0.0000000  -0.0000000  -0.0000000  -0.0000000  -0.0000000  -0.0000000  -0.0000000
 NQMom=    0.0000000   0.0000000   0.0000000   0.0000000   0.0000000   0.0000000   0.0000000   0.0000000
 NMagM=    2.7928460   2.7928460   2.7928460   0.0000000   2.7928460   0.0000000   2.7928460   2.7928460
 AtZNuc=   1.0000000   1.0000000   1.0000000   6.0000000   1.0000000   6.0000000   1.0000000   1.0000000
 Leave Link  101 at Fri Sep 17 13:32:34 2021, MaxMem=   524288000 cpu:               0.1 elap:               0.5
 (Enter /opt/gaussian/g16_legacy/l103.exe)

 GradGradGradGradGradGradGradGradGradGradGradGradGradGradGradGradGradGrad
 Berny optimization.
 Initialization pass.
                           ----------------------------
                           !    Initial Parameters    !
                           ! (Angstroms and Degrees)  !
 --------------------------                            --------------------------
 ! Name  Definition              Value          Derivative Info.                !
 --------------------------------------------------------------------------------
 ! R1    R(1,2)                  1.0966         estimate D2E/DX2                !
 ! R2    R(1,3)                  1.0983         estimate D2E/DX2                !
 ! R3    R(1,4)                  1.5149         estimate D2E/DX2                !
 ! R4    R(1,26)                 1.532          estimate D2E/DX2                !
 ! R5    R(4,5)                  1.5074         estimate D2E/DX2                !
 ! R6    R(4,9)                  1.3477         estimate D2E/DX2                !
 ! R7    R(5,6)                  1.0946         estimate D2E/DX2                !
 ! R8    R(5,7)                  1.0949         estimate D2E/DX2                !
 ! R9    R(5,8)                  1.0952         estimate D2E/DX2                !
 ! R10   R(9,10)                 1.0897         estimate D2E/DX2                !
 ! R11   R(9,11)                 1.496          estimate D2E/DX2                !
 ! R12   R(11,12)                1.0949         estimate D2E/DX2                !
 ! R13   R(11,13)                1.0941         estimate D2E/DX2                !
 ! R14   R(11,14)                1.0922         estimate D2E/DX2                !
 ! R15   R(15,16)                1.0955         estimate D2E/DX2                !
 ! R16   R(15,17)                1.0947         estimate D2E/DX2                !
 ! R17   R(15,18)                1.0924         estimate D2E/DX2                !
 ! R18   R(15,19)                1.5038         estimate D2E/DX2                !
 ! R19   R(19,20)                1.5065         estimate D2E/DX2                !
 ! R20   R(19,24)                1.3474         estimate D2E/DX2                !
 ! R21   R(20,21)                1.0949         estimate D2E/DX2                !
 ! R22   R(20,22)                1.095          estimate D2E/DX2                !
 ! R23   R(20,23)                1.0951         estimate D2E/DX2                !
 ! R24   R(24,25)                1.0902         estimate D2E/DX2                !
 ! R25   R(24,26)                1.5056         estimate D2E/DX2                !
 ! R26   R(26,27)                1.0977         estimate D2E/DX2                !
 ! R27   R(26,28)                1.0946         estimate D2E/DX2                !
 ! A1    A(2,1,3)              104.8568         estimate D2E/DX2                !
 ! A2    A(2,1,4)              110.6501         estimate D2E/DX2                !
 ! A3    A(2,1,26)             109.9883         estimate D2E/DX2                !
 ! A4    A(3,1,4)              108.9413         estimate D2E/DX2                !
 ! A5    A(3,1,26)             109.9097         estimate D2E/DX2                !
 ! A6    A(4,1,26)             112.2299         estimate D2E/DX2                !
 ! A7    A(1,4,5)              114.996          estimate D2E/DX2                !
 ! A8    A(1,4,9)              124.4595         estimate D2E/DX2                !
 ! A9    A(5,4,9)              120.5325         estimate D2E/DX2                !
 ! A10   A(4,5,6)              110.4961         estimate D2E/DX2                !
 ! A11   A(4,5,7)              110.2832         estimate D2E/DX2                !
 ! A12   A(4,5,8)              112.2579         estimate D2E/DX2                !
 ! A13   A(6,5,7)              108.5521         estimate D2E/DX2                !
 ! A14   A(6,5,8)              107.5389         estimate D2E/DX2                !
 ! A15   A(7,5,8)              107.5762         estimate D2E/DX2                !
 ! A16   A(4,9,10)             118.5603         estimate D2E/DX2                !
 ! A17   A(4,9,11)             127.5335         estimate D2E/DX2                !
 ! A18   A(10,9,11)            113.8991         estimate D2E/DX2                !
 ! A19   A(9,11,12)            109.4372         estimate D2E/DX2                !
 ! A20   A(9,11,13)            109.8593         estimate D2E/DX2                !
 ! A21   A(9,11,14)            113.494          estimate D2E/DX2                !
 ! A22   A(12,11,13)           108.1227         estimate D2E/DX2                !
 ! A23   A(12,11,14)           107.3038         estimate D2E/DX2                !
 ! A24   A(13,11,14)           108.4629         estimate D2E/DX2                !
 ! A25   A(16,15,17)           108.3311         estimate D2E/DX2                !
 ! A26   A(16,15,18)           106.7719         estimate D2E/DX2                !
 ! A27   A(16,15,19)           110.0615         estimate D2E/DX2                !
 ! A28   A(17,15,18)           107.9902         estimate D2E/DX2                !
 ! A29   A(17,15,19)           110.1038         estimate D2E/DX2                !
 ! A30   A(18,15,19)           113.4059         estimate D2E/DX2                !
 ! A31   A(15,19,20)           114.2913         estimate D2E/DX2                !
 ! A32   A(15,19,24)           125.0688         estimate D2E/DX2                !
 ! A33   A(20,19,24)           120.6373         estimate D2E/DX2                !
 ! A34   A(19,20,21)           110.2899         estimate D2E/DX2                !
 ! A35   A(19,20,22)           110.2017         estimate D2E/DX2                !
 ! A36   A(19,20,23)           112.338          estimate D2E/DX2                !
 ! A37   A(21,20,22)           108.5664         estimate D2E/DX2                !
 ! A38   A(21,20,23)           107.6688         estimate D2E/DX2                !
 ! A39   A(22,20,23)           107.6495         estimate D2E/DX2                !
 ! A40   A(19,24,25)           118.4537         estimate D2E/DX2                !
 ! A41   A(19,24,26)           127.645          estimate D2E/DX2                !
 ! A42   A(25,24,26)           113.8934         estimate D2E/DX2                !
 ! A43   A(1,26,24)            111.4058         estimate D2E/DX2                !
 ! A44   A(1,26,27)            109.8039         estimate D2E/DX2                !
 ! A45   A(1,26,28)            110.636          estimate D2E/DX2                !
 ! A46   A(24,26,27)           107.8353         estimate D2E/DX2                !
 ! A47   A(24,26,28)           111.4231         estimate D2E/DX2                !
 ! A48   A(27,26,28)           105.5226         estimate D2E/DX2                !
 ! D1    D(2,1,4,5)           -151.7268         estimate D2E/DX2                !
 ! D2    D(2,1,4,9)             27.0154         estimate D2E/DX2                !
 ! D3    D(3,1,4,5)            -36.9534         estimate D2E/DX2                !
 ! D4    D(3,1,4,9)            141.7888         estimate D2E/DX2                !
 ! D5    D(26,1,4,5)            84.9982         estimate D2E/DX2                !
 ! D6    D(26,1,4,9)           -96.2597         estimate D2E/DX2                !
 ! D7    D(2,1,26,24)           55.3316         estimate D2E/DX2                !
 ! D8    D(2,1,26,27)          -64.0627         estimate D2E/DX2                !
 ! D9    D(2,1,26,28)          179.8618         estimate D2E/DX2                !
 ! D10   D(3,1,26,24)          -59.6246         estimate D2E/DX2                !
 ! D11   D(3,1,26,27)         -179.0189         estimate D2E/DX2                !
 ! D12   D(3,1,26,28)           64.9057         estimate D2E/DX2                !
 ! D13   D(4,1,26,24)          178.9774         estimate D2E/DX2                !
 ! D14   D(4,1,26,27)           59.5831         estimate D2E/DX2                !
 ! D15   D(4,1,26,28)          -56.4923         estimate D2E/DX2                !
 ! D16   D(1,4,5,6)            -60.55           estimate D2E/DX2                !
 ! D17   D(1,4,5,7)             59.4681         estimate D2E/DX2                !
 ! D18   D(1,4,5,8)            179.4095         estimate D2E/DX2                !
 ! D19   D(9,4,5,6)            120.654          estimate D2E/DX2                !
 ! D20   D(9,4,5,7)           -119.3278         estimate D2E/DX2                !
 ! D21   D(9,4,5,8)              0.6136         estimate D2E/DX2                !
 ! D22   D(1,4,9,10)          -178.5537         estimate D2E/DX2                !
 ! D23   D(1,4,9,11)             2.4793         estimate D2E/DX2                !
 ! D24   D(5,4,9,10)             0.1227         estimate D2E/DX2                !
 ! D25   D(5,4,9,11)          -178.8442         estimate D2E/DX2                !
 ! D26   D(4,9,11,12)          127.8665         estimate D2E/DX2                !
 ! D27   D(4,9,11,13)         -113.5678         estimate D2E/DX2                !
 ! D28   D(4,9,11,14)            8.0437         estimate D2E/DX2                !
 ! D29   D(10,9,11,12)         -51.1411         estimate D2E/DX2                !
 ! D30   D(10,9,11,13)          67.4247         estimate D2E/DX2                !
 ! D31   D(10,9,11,14)        -170.9639         estimate D2E/DX2                !
 ! D32   D(16,15,19,20)         52.5879         estimate D2E/DX2                !
 ! D33   D(16,15,19,24)       -126.8222         estimate D2E/DX2                !
 ! D34   D(17,15,19,20)        -66.7667         estimate D2E/DX2                !
 ! D35   D(17,15,19,24)        113.8232         estimate D2E/DX2                !
 ! D36   D(18,15,19,20)        172.1141         estimate D2E/DX2                !
 ! D37   D(18,15,19,24)         -7.296          estimate D2E/DX2                !
 ! D38   D(15,19,20,21)        -60.2823         estimate D2E/DX2                !
 ! D39   D(15,19,20,22)         59.5696         estimate D2E/DX2                !
 ! D40   D(15,19,20,23)        179.6011         estimate D2E/DX2                !
 ! D41   D(24,19,20,21)        119.1566         estimate D2E/DX2                !
 ! D42   D(24,19,20,22)       -120.9915         estimate D2E/DX2                !
 ! D43   D(24,19,20,23)         -0.96           estimate D2E/DX2                !
 ! D44   D(15,19,24,25)        178.8565         estimate D2E/DX2                !
 ! D45   D(15,19,24,26)         -2.2373         estimate D2E/DX2                !
 ! D46   D(20,19,24,25)         -0.5187         estimate D2E/DX2                !
 ! D47   D(20,19,24,26)        178.3875         estimate D2E/DX2                !
 ! D48   D(19,24,26,1)         103.6589         estimate D2E/DX2                !
 ! D49   D(19,24,26,27)       -135.7835         estimate D2E/DX2                !
 ! D50   D(19,24,26,28)        -20.4279         estimate D2E/DX2                !
 ! D51   D(25,24,26,1)         -77.3929         estimate D2E/DX2                !
 ! D52   D(25,24,26,27)         43.1647         estimate D2E/DX2                !
 ! D53   D(25,24,26,28)        158.5203         estimate D2E/DX2                !
 --------------------------------------------------------------------------------
 Trust Radius=3.00D-01 FncErr=1.00D-07 GrdErr=1.00D-07 EigMax=2.50D+02 EigMin=1.00D-04
 Number of steps in this run=    138 maximum allowed number of steps=    168.
 GradGradGradGradGradGradGradGradGradGradGradGradGradGradGradGradGradGrad

 Leave Link  103 at Fri Sep 17 13:32:34 2021, MaxMem=   524288000 cpu:               0.0 elap:               0.4
 (Enter /opt/gaussian/g16_legacy/l202.exe)
                          Input orientation:                          
 ---------------------------------------------------------------------
 Center     Atomic      Atomic             Coordinates (Angstroms)
 Number     Number       Type             X           Y           Z
 ---------------------------------------------------------------------
      1          6           0        0.711800   -0.299100    0.377900
      2          1           0        0.809000   -1.386900    0.476800
      3          1           0        0.137500    0.013700    1.260300
      4          6           0        2.073000    0.364600    0.416500
      5          6           0        2.079100    1.775000    0.948500
      6          1           0        1.453000    2.422100    0.326100
      7          1           0        1.692000    1.796100    1.972500
      8          1           0        3.085200    2.207300    0.966300
      9          6           0        3.222200   -0.229800    0.039100
     10          1           0        4.152500    0.330400    0.129200
     11          6           0        3.394300   -1.603200   -0.528400
     12          1           0        3.969400   -1.543800   -1.458200
     13          1           0        3.949900   -2.229500    0.176000
     14          1           0        2.449700   -2.099400   -0.761800
     15          6           0       -2.855100    1.326700   -0.289300
     16          1           0       -3.460500    1.364100    0.622900
     17          1           0       -3.395200    1.853100   -1.082800
     18          1           0       -1.936900    1.880800   -0.081200
     19          6           0       -2.612700   -0.102500   -0.689300
     20          6           0       -3.862900   -0.935900   -0.799100
     21          1           0       -4.382500   -0.969700    0.164100
     22          1           0       -4.539400   -0.506300   -1.545300
     23          1           0       -3.650400   -1.967600   -1.098500
     24          6           0       -1.402700   -0.644900   -0.928500
     25          1           0       -1.350200   -1.700900   -1.194300
     26          6           0       -0.064100    0.043500   -0.897900
     27          1           0        0.503400   -0.285600   -1.778000
     28          1           0       -0.169500    1.127600   -1.005900
 ---------------------------------------------------------------------
                    Distance matrix (angstroms):
                    1          2          3          4          5
     1  C    0.000000
     2  H    1.096603   0.000000
     3  H    1.098314   1.739674   0.000000
     4  C    1.514877   2.160806   2.140395   0.000000
     5  C    2.548918   3.439952   2.639926   1.507411   0.000000
     6  H    2.820814   3.865996   2.898907   2.150786   1.094587
     7  H    2.809520   3.626058   2.469949   2.148369   1.094928
     8  H    3.501611   4.282402   3.686089   2.173102   1.095188
     9  C    2.534107   2.711825   3.326559   1.347740   2.480506
    10  H    3.506642   3.774776   4.183290   2.099531   2.656522
    11  C    3.117349   2.782263   4.052229   2.551648   3.914488
    12  H    3.941129   3.709039   4.949698   3.279150   4.514407
    13  H    3.775248   3.265840   4.554344   3.210911   4.486944
    14  H    2.749599   2.175703   3.728317   2.757098   4.251288
    15  C    3.976325   4.623436   3.616750   5.070499   5.106804
    16  H    4.498260   5.081139   3.895570   5.626831   5.564353
    17  H    4.861384   5.532201   4.620982   5.862145   5.839541
    18  H    3.460975   4.304555   3.096582   4.315769   4.147256
    19  C    3.497123   3.836340   3.373135   4.837020   5.312286
    20  C    4.766416   4.863946   4.598485   6.197087   6.760950
    21  H    5.142695   5.217615   4.753854   6.596783   7.064059
    22  H    5.596135   5.785303   5.478612   6.952047   7.431548
    23  H    4.898208   4.764980   4.882384   6.363308   7.143139
    24  C    2.509456   2.723426   2.756232   3.861166   4.637022
    25  H    2.947660   2.748330   3.343376   4.310367   5.332314
    26  C    1.532012   2.167521   2.167800   2.529417   3.316714
    27  H    2.165991   2.527919   3.074854   2.775290   3.763337
    28  H    2.174181   3.078729   2.543754   2.763005   3.048772
                    6          7          8          9         10
     6  H    0.000000
     7  H    1.777535   0.000000
     8  H    1.766373   1.767068   0.000000
     9  C    3.200783   3.191210   2.611116   0.000000
    10  H    3.420713   3.405891   2.315733   1.089679   0.000000
    11  C    4.549929   4.550557   4.104824   1.495962   2.178558
    12  H    5.024376   5.301998   4.553105   2.127630   2.462923
    13  H    5.281517   4.952876   4.588842   2.132390   2.568331
    14  H    4.756143   4.819277   4.683786   2.175684   3.097957
    15  C    4.487577   5.100215   6.135076   6.282047   7.090431
    16  H    5.034872   5.343810   6.608714   6.894913   7.698704
    17  H    5.080729   5.934451   6.805869   7.027597   7.794571
    18  H    3.456924   4.170584   5.140559   5.575430   6.287193
    19  C    4.892296   5.405581   6.367280   5.881567   6.828270
    20  C    6.387569   6.782515   7.827671   7.169365   8.167735
    21  H    6.751564   6.915165   8.154962   7.641632   8.633522
    22  H    6.927230   7.517068   8.473859   7.926488   8.891183
    23  H    6.880672   7.220645   8.189108   7.179604   8.226378
    24  C    4.374418   4.894022   5.645047   4.743233   5.738483
    25  H    5.212358   5.613610   6.294044   4.959058   6.013114
    26  C    3.075306   3.794033   4.251513   3.428182   4.349363
    27  H    3.558176   4.451123   4.517900   3.270602   4.163268
    28  H    2.466264   3.575324   3.955805   3.799762   4.539126
                   11         12         13         14         15
    11  C    0.000000
    12  H    1.094896   0.000000
    13  H    1.094131   1.772336   0.000000
    14  H    1.092227   1.761577   1.773977   0.000000
    15  C    6.906264   7.495325   7.692275   6.332639   0.000000
    16  H    7.557688   8.245621   8.247891   6.988826   1.095453
    17  H    7.638762   8.118940   8.497217   7.063155   1.094736
    18  H    6.384351   6.964797   7.184367   5.962170   1.092439
    19  C    6.193710   6.781784   6.952740   5.442496   1.503785
    20  C    7.292840   7.883456   7.978976   6.419037   2.528817
    21  H    7.833230   8.527349   8.427107   6.986592   2.794991
    22  H    8.073467   8.572262   8.831790   7.211058   2.788242
    23  H    7.077118   7.640049   7.710869   6.110807   3.484210
    24  C    4.908119   5.472482   5.690449   4.121207   2.530859
    25  H    4.791998   5.328458   5.499836   3.845140   3.500016
    26  C    3.848205   4.370650   4.736242   3.306015   3.131561
    27  H    3.413923   3.701148   4.413074   2.847914   4.011890
    28  H    4.515080   4.946862   5.443938   4.163331   2.786683
                   16         17         18         19         20
    16  H    0.000000
    17  H    1.775612   0.000000
    18  H    1.756158   1.769353   0.000000
    19  C    2.142790   2.142783   2.181736   0.000000
    20  C    2.733864   2.842138   3.486926   1.506523   0.000000
    21  H    2.550922   3.240019   3.763839   2.147678   1.094934
    22  H    3.059986   2.662681   3.822936   2.146617   1.094999
    23  H    3.754931   3.829246   4.333724   2.173215   1.095081
    24  C    3.267639   3.199042   2.717066   1.347410   2.480728
    25  H    4.141233   4.101874   3.796285   2.098527   2.656138
    26  C    3.948715   3.795401   2.747735   2.561287   3.924266
    27  H    4.919180   4.500714   3.677973   3.305885   4.521693
    28  H    3.679620   3.307175   2.132155   2.753654   4.235800
                   21         22         23         24         25
    21  H    0.000000
    22  H    1.778034   0.000000
    23  H    1.768031   1.767866   0.000000
    24  C    3.190373   3.199772   2.613540   0.000000
    25  H    3.402168   3.423634   2.317591   1.090203   0.000000
    26  C    4.561030   4.555186   4.116590   1.505550   2.187427
    27  H    5.302053   5.052988   4.532648   2.117537   2.404083
    28  H    4.849426   4.696446   4.658916   2.160678   3.070824
                   26         27         28
    26  C    0.000000
    27  H    1.097697   0.000000
    28  H    1.094553   1.745299   0.000000
 Stoichiometry    C10H18
 Framework group  C1[X(C10H18)]
 Deg. of freedom    78
 Full point group                 C1      NOp   1
 Largest Abelian subgroup         C1      NOp   1
 Largest concise Abelian subgroup C1      NOp   1
                         Standard orientation:                         
 ---------------------------------------------------------------------
 Center     Atomic      Atomic             Coordinates (Angstroms)
 Number     Number       Type             X           Y           Z
 ---------------------------------------------------------------------
      1          6           0        0.745778   -0.045447    0.580381
      2          1           0        0.871525   -1.012138    1.082612
      3          1           0        0.286577    0.606606    1.335533
      4          6           0        2.090186    0.530337    0.185548
      5          6           0        2.144096    2.035358    0.120009
      6          1           0        1.432540    2.412433   -0.621357
      7          1           0        1.893343    2.466949    1.094545
      8          1           0        3.137272    2.403128   -0.158890
      9          6           0        3.189352   -0.206003   -0.071434
     10          1           0        4.114855    0.310415   -0.324729
     11          6           0        3.306921   -1.697333   -0.075121
     12          1           0        3.755095   -2.025152   -1.018768
     13          1           0        3.958946   -2.020794    0.741800
     14          1           0        2.347613   -2.209977    0.024297
     15          6           0       -2.901889    1.323919   -0.213670
     16          1           0       -3.383862    1.735141    0.679982
     17          1           0       -3.548633    1.520211   -1.074855
     18          1           0       -1.972926    1.881016   -0.355427
     19          6           0       -2.691971   -0.156302   -0.051646
     20          6           0       -3.933032   -0.920091    0.330462
     21          1           0       -4.322225   -0.557775    1.287612
     22          1           0       -4.707371   -0.789506   -0.432669
     23          1           0       -3.745690   -1.994145    0.432988
     24          6           0       -1.515325   -0.793315   -0.210490
     25          1           0       -1.481859   -1.870777   -0.047714
     26          6           0       -0.194738   -0.197063   -0.619412
     27          1           0        0.258269   -0.862979   -1.365254
     28          1           0       -0.329743    0.762988   -1.127469
 ---------------------------------------------------------------------
 Rotational constants (GHZ):           2.4778662           0.5324371           0.4581643
 Leave Link  202 at Fri Sep 17 13:32:35 2021, MaxMem=   524288000 cpu:               0.0 elap:               0.1
 (Enter /opt/gaussian/g16_legacy/l301.exe)
 Standard basis: 6-31G(d,p) (6D, 7F)
 Ernie: Thresh=  0.10000D-02 Tol=  0.10000D-05 Strict=F.
 There are   240 symmetry adapted cartesian basis functions of A   symmetry.
 There are   240 symmetry adapted basis functions of A   symmetry.
   240 basis functions,   406 primitive gaussians,   240 cartesian basis functions
    39 alpha electrons       39 beta electrons
       nuclear repulsion energy       513.2778205576 Hartrees.
 IExCor=    0 DFT=F Ex=HF Corr=None ExCW=0 ScaHFX=  1.000000
 ScaDFX=  1.000000  1.000000  1.000000  1.000000 ScalE2=  1.000000  1.000000
 IRadAn=      5 IRanWt=     -1 IRanGd=            0 ICorTp=0 IEmpDi=  4
 NAtoms=   28 NActive=   28 NUniq=   28 SFac= 1.00D+00 NAtFMM=   60 NAOKFM=F Big=F
 Integral buffers will be    131072 words long.
 Raffenetti 1 integral format.
 Two-electron integral symmetry is turned on.
 Leave Link  301 at Fri Sep 17 13:32:36 2021, MaxMem=   524288000 cpu:               0.0 elap:               0.8
 (Enter /opt/gaussian/g16_legacy/l302.exe)
 NPDir=0 NMtPBC=     1 NCelOv=     1 NCel=       1 NClECP=     1 NCelD=      1
         NCelK=      1 NCelE2=     1 NClLst=     1 CellRange=     0.0.
 One-electron integrals computed using PRISM.
 One-electron integral symmetry used in STVInt
 NBasis=   240 RedAO= T EigKep=  2.09D-03  NBF=   240
 NBsUse=   240 1.00D-06 EigRej= -1.00D+00 NBFU=   240
 Leave Link  302 at Fri Sep 17 13:32:36 2021, MaxMem=   524288000 cpu:               0.2 elap:               0.4
 (Enter /opt/gaussian/g16_legacy/l303.exe)
 DipDrv:  MaxL=1.
 Leave Link  303 at Fri Sep 17 13:32:37 2021, MaxMem=   524288000 cpu:               0.0 elap:               0.2
 (Enter /opt/gaussian/g16_legacy/l401.exe)
 ExpMin= 1.61D-01 ExpMax= 3.05D+03 ExpMxC= 4.57D+02 IAcc=3 IRadAn=         5 AccDes= 0.00D+00
 Harris functional with IExCor=  205 and IRadAn=       5 diagonalized for initial guess.
 HarFok:  IExCor=  205 AccDes= 0.00D+00 IRadAn=         5 IDoV= 1 UseB2=F ITyADJ=14
 ICtDFT=  3500011 ScaDFX=  1.000000  1.000000  1.000000  1.000000
 FoFCou: FMM=F IPFlag=           0 FMFlag=      100000 FMFlg1=           0
         NFxFlg=           0 DoJE=T BraDBF=F KetDBF=T FulRan=T
         wScrn=  0.000000 ICntrl=       500 IOpCl=  0 I1Cent=   200000004 NGrid=           0
         NMat0=    1 NMatS0=      1 NMatT0=    0 NMatD0=    1 NMtDS0=    0 NMtDT0=    0
 Petite list used in FoFCou.
 Harris En= -390.110055618291    
 JPrj=0 DoOrth=F DoCkMO=F.
 Leave Link  401 at Fri Sep 17 13:32:44 2021, MaxMem=   524288000 cpu:               6.2 elap:               7.5
 (Enter /opt/gaussian/g16_legacy/l502.exe)
 Keep R1 ints in memory in canonical form, NReq=425198025.
 FoFCou: FMM=F IPFlag=           0 FMFlag=           0 FMFlg1=           0
         NFxFlg=           0 DoJE=F BraDBF=F KetDBF=F FulRan=T
         wScrn=  0.000000 ICntrl=       600 IOpCl=  0 I1Cent=           0 NGrid=           0
         NMat0=    1 NMatS0=  28920 NMatT0=    0 NMatD0=    1 NMtDS0=    0 NMtDT0=    0
 Symmetry not used in FoFCou.
 Two-electron integral symmetry not used.
 Closed shell SCF:
 Using DIIS extrapolation, IDIIS=  1040.
 NGot=   524288000 LenX=   105970886 LenY=   105912845
 Requested convergence on RMS density matrix=1.00D-08 within 128 cycles.
 Requested convergence on MAX density matrix=1.00D-06.
 Requested convergence on             energy=1.00D-06.
 No special actions if energy rises.

 Cycle   1  Pass 1  IDiag  1:
 E= -388.532777249821    
 DIIS: error= 5.02D-02 at cycle   1 NSaved=   1.
 NSaved= 1 IEnMin= 1 EnMin= -388.532777249821     IErMin= 1 ErrMin= 5.02D-02
 ErrMax= 5.02D-02  0.00D+00 EMaxC= 1.00D-01 BMatC= 8.07D-01 BMatP= 8.07D-01
 IDIUse=3 WtCom= 4.98D-01 WtEn= 5.02D-01
 Coeff-Com:  0.100D+01
 Coeff-En:   0.100D+01
 Coeff:      0.100D+01
 Gap=     0.508 Goal=   None    Shift=    0.000
 GapD=    0.508 DampG=2.000 DampE=0.500 DampFc=1.0000 IDamp=-1.
 RMSDP=3.99D-03 MaxDP=1.15D-01              OVMax= 1.40D-01

 Cycle   2  Pass 1  IDiag  1:
 E= -389.074230696287     Delta-E=       -0.541453446466 Rises=F Damp=F
 DIIS: error= 1.46D-02 at cycle   2 NSaved=   2.
 NSaved= 2 IEnMin= 2 EnMin= -389.074230696287     IErMin= 2 ErrMin= 1.46D-02
 ErrMax= 1.46D-02  0.00D+00 EMaxC= 1.00D-01 BMatC= 8.64D-02 BMatP= 8.07D-01
 IDIUse=3 WtCom= 8.54D-01 WtEn= 1.46D-01
 Coeff-Com:  0.183D+00 0.817D+00
 Coeff-En:   0.000D+00 0.100D+01
 Coeff:      0.156D+00 0.844D+00
 Gap=     0.552 Goal=   None    Shift=    0.000
 RMSDP=1.62D-03 MaxDP=3.04D-02 DE=-5.41D-01 OVMax= 4.55D-02

 Cycle   3  Pass 1  IDiag  1:
 E= -389.151650644478     Delta-E=       -0.077419948192 Rises=F Damp=F
 DIIS: error= 2.67D-03 at cycle   3 NSaved=   3.
 NSaved= 3 IEnMin= 3 EnMin= -389.151650644478     IErMin= 3 ErrMin= 2.67D-03
 ErrMax= 2.67D-03  0.00D+00 EMaxC= 1.00D-01 BMatC= 3.02D-03 BMatP= 8.64D-02
 IDIUse=3 WtCom= 9.73D-01 WtEn= 2.67D-02
 Coeff-Com: -0.245D-01 0.102D+00 0.922D+00
 Coeff-En:   0.000D+00 0.000D+00 0.100D+01
 Coeff:     -0.239D-01 0.997D-01 0.924D+00
 Gap=     0.499 Goal=   None    Shift=    0.000
 RMSDP=2.54D-04 MaxDP=6.75D-03 DE=-7.74D-02 OVMax= 9.70D-03

 Cycle   4  Pass 1  IDiag  1:
 E= -389.155144680234     Delta-E=       -0.003494035756 Rises=F Damp=F
 DIIS: error= 4.95D-04 at cycle   4 NSaved=   4.
 NSaved= 4 IEnMin= 4 EnMin= -389.155144680234     IErMin= 4 ErrMin= 4.95D-04
 ErrMax= 4.95D-04  0.00D+00 EMaxC= 1.00D-01 BMatC= 9.59D-05 BMatP= 3.02D-03
 IDIUse=3 WtCom= 9.95D-01 WtEn= 4.95D-03
 Coeff-Com: -0.443D-02-0.834D-03 0.102D+00 0.903D+00
 Coeff-En:   0.000D+00 0.000D+00 0.000D+00 0.100D+01
 Coeff:     -0.440D-02-0.830D-03 0.102D+00 0.903D+00
 Gap=     0.500 Goal=   None    Shift=    0.000
 RMSDP=7.33D-05 MaxDP=1.75D-03 DE=-3.49D-03 OVMax= 3.51D-03

 Cycle   5  Pass 1  IDiag  1:
 E= -389.155269917660     Delta-E=       -0.000125237426 Rises=F Damp=F
 DIIS: error= 1.73D-04 at cycle   5 NSaved=   5.
 NSaved= 5 IEnMin= 5 EnMin= -389.155269917660     IErMin= 5 ErrMin= 1.73D-04
 ErrMax= 1.73D-04  0.00D+00 EMaxC= 1.00D-01 BMatC= 1.79D-05 BMatP= 9.59D-05
 IDIUse=3 WtCom= 9.98D-01 WtEn= 1.73D-03
 Coeff-Com:  0.248D-02-0.154D-01-0.106D+00 0.196D+00 0.922D+00
 Coeff-En:   0.000D+00 0.000D+00 0.000D+00 0.000D+00 0.100D+01
 Coeff:      0.247D-02-0.153D-01-0.105D+00 0.196D+00 0.923D+00
 Gap=     0.500 Goal=   None    Shift=    0.000
 RMSDP=3.09D-05 MaxDP=7.46D-04 DE=-1.25D-04 OVMax= 1.02D-03

 Cycle   6  Pass 1  IDiag  1:
 E= -389.155293537874     Delta-E=       -0.000023620214 Rises=F Damp=F
 DIIS: error= 3.73D-05 at cycle   6 NSaved=   6.
 NSaved= 6 IEnMin= 6 EnMin= -389.155293537874     IErMin= 6 ErrMin= 3.73D-05
 ErrMax= 3.73D-05  0.00D+00 EMaxC= 1.00D-01 BMatC= 5.50D-07 BMatP= 1.79D-05
 IDIUse=1 WtCom= 1.00D+00 WtEn= 0.00D+00
 Coeff-Com:  0.724D-03-0.330D-02-0.263D-01-0.272D-02 0.163D+00 0.868D+00
 Coeff:      0.724D-03-0.330D-02-0.263D-01-0.272D-02 0.163D+00 0.868D+00
 Gap=     0.500 Goal=   None    Shift=    0.000
 RMSDP=5.42D-06 MaxDP=1.67D-04 DE=-2.36D-05 OVMax= 3.13D-04

 Cycle   7  Pass 1  IDiag  1:
 E= -389.155294391313     Delta-E=       -0.000000853440 Rises=F Damp=F
 DIIS: error= 9.13D-06 at cycle   7 NSaved=   7.
 NSaved= 7 IEnMin= 7 EnMin= -389.155294391313     IErMin= 7 ErrMin= 9.13D-06
 ErrMax= 9.13D-06  0.00D+00 EMaxC= 1.00D-01 BMatC= 4.92D-08 BMatP= 5.50D-07
 IDIUse=1 WtCom= 1.00D+00 WtEn= 0.00D+00
 Coeff-Com: -0.555D-04 0.478D-03 0.326D-02-0.106D-01-0.462D-01 0.126D+00
 Coeff-Com:  0.927D+00
 Coeff:     -0.555D-04 0.478D-03 0.326D-02-0.106D-01-0.462D-01 0.126D+00
 Coeff:      0.927D+00
 Gap=     0.500 Goal=   None    Shift=    0.000
 RMSDP=1.70D-06 MaxDP=4.71D-05 DE=-8.53D-07 OVMax= 8.67D-05

 Cycle   8  Pass 1  IDiag  1:
 E= -389.155294476490     Delta-E=       -0.000000085177 Rises=F Damp=F
 DIIS: error= 2.98D-06 at cycle   8 NSaved=   8.
 NSaved= 8 IEnMin= 8 EnMin= -389.155294476490     IErMin= 8 ErrMin= 2.98D-06
 ErrMax= 2.98D-06  0.00D+00 EMaxC= 1.00D-01 BMatC= 4.91D-09 BMatP= 4.92D-08
 IDIUse=1 WtCom= 1.00D+00 WtEn= 0.00D+00
 Coeff-Com: -0.553D-04 0.226D-03 0.195D-02 0.331D-02-0.143D-01-0.848D-01
 Coeff-Com: -0.129D+00 0.122D+01
 Coeff:     -0.553D-04 0.226D-03 0.195D-02 0.331D-02-0.143D-01-0.848D-01
 Coeff:     -0.129D+00 0.122D+01
 Gap=     0.500 Goal=   None    Shift=    0.000
 RMSDP=7.77D-07 MaxDP=2.58D-05 DE=-8.52D-08 OVMax= 5.60D-05

 Cycle   9  Pass 1  IDiag  1:
 E= -389.155294491789     Delta-E=       -0.000000015299 Rises=F Damp=F
 DIIS: error= 1.35D-06 at cycle   9 NSaved=   9.
 NSaved= 9 IEnMin= 9 EnMin= -389.155294491789     IErMin= 9 ErrMin= 1.35D-06
 ErrMax= 1.35D-06  0.00D+00 EMaxC= 1.00D-01 BMatC= 6.53D-10 BMatP= 4.91D-09
 IDIUse=1 WtCom= 1.00D+00 WtEn= 0.00D+00
 Coeff-Com:  0.122D-04-0.777D-04-0.581D-03 0.123D-02 0.420D-02 0.525D-02
 Coeff-Com: -0.724D-01-0.197D+00 0.126D+01
 Coeff:      0.122D-04-0.777D-04-0.581D-03 0.123D-02 0.420D-02 0.525D-02
 Coeff:     -0.724D-01-0.197D+00 0.126D+01
 Gap=     0.500 Goal=   None    Shift=    0.000
 RMSDP=2.99D-07 MaxDP=1.28D-05 DE=-1.53D-08 OVMax= 2.62D-05

 Cycle  10  Pass 1  IDiag  1:
 E= -389.155294494014     Delta-E=       -0.000000002225 Rises=F Damp=F
 DIIS: error= 4.11D-07 at cycle  10 NSaved=  10.
 NSaved=10 IEnMin=10 EnMin= -389.155294494014     IErMin=10 ErrMin= 4.11D-07
 ErrMax= 4.11D-07  0.00D+00 EMaxC= 1.00D-01 BMatC= 8.49D-11 BMatP= 6.53D-10
 IDIUse=1 WtCom= 1.00D+00 WtEn= 0.00D+00
 Coeff-Com:  0.803D-05-0.368D-04-0.304D-03-0.200D-03 0.163D-02 0.134D-01
 Coeff-Com:  0.123D-01-0.192D+00 0.976D-01 0.107D+01
 Coeff:      0.803D-05-0.368D-04-0.304D-03-0.200D-03 0.163D-02 0.134D-01
 Coeff:      0.123D-01-0.192D+00 0.976D-01 0.107D+01
 Gap=     0.500 Goal=   None    Shift=    0.000
 RMSDP=1.08D-07 MaxDP=3.32D-06 DE=-2.23D-09 OVMax= 8.53D-06

 Cycle  11  Pass 1  IDiag  1:
 E= -389.155294494243     Delta-E=       -0.000000000229 Rises=F Damp=F
 DIIS: error= 1.55D-07 at cycle  11 NSaved=  11.
 NSaved=11 IEnMin=11 EnMin= -389.155294494243     IErMin=11 ErrMin= 1.55D-07
 ErrMax= 1.55D-07  0.00D+00 EMaxC= 1.00D-01 BMatC= 5.88D-12 BMatP= 8.49D-11
 IDIUse=1 WtCom= 1.00D+00 WtEn= 0.00D+00
 Coeff-Com: -0.513D-06 0.461D-05 0.339D-04-0.107D-03-0.457D-03 0.976D-03
 Coeff-Com:  0.872D-02 0.505D-02-0.108D+00 0.920D-01 0.100D+01
 Coeff:     -0.513D-06 0.461D-05 0.339D-04-0.107D-03-0.457D-03 0.976D-03
 Coeff:      0.872D-02 0.505D-02-0.108D+00 0.920D-01 0.100D+01
 Gap=     0.500 Goal=   None    Shift=    0.000
 RMSDP=2.30D-08 MaxDP=1.01D-06 DE=-2.29D-10 OVMax= 2.02D-06

 Cycle  12  Pass 1  IDiag  1:
 E= -389.155294494257     Delta-E=       -0.000000000014 Rises=F Damp=F
 DIIS: error= 4.41D-08 at cycle  12 NSaved=  12.
 NSaved=12 IEnMin=12 EnMin= -389.155294494257     IErMin=12 ErrMin= 4.41D-08
 ErrMax= 4.41D-08  0.00D+00 EMaxC= 1.00D-01 BMatC= 9.43D-13 BMatP= 5.88D-12
 IDIUse=1 WtCom= 1.00D+00 WtEn= 0.00D+00
 Coeff-Com: -0.945D-06 0.495D-05 0.398D-04 0.175D-05-0.291D-03-0.124D-02
 Coeff-Com:  0.337D-03 0.206D-01-0.365D-01-0.106D+00 0.192D+00 0.931D+00
 Coeff:     -0.945D-06 0.495D-05 0.398D-04 0.175D-05-0.291D-03-0.124D-02
 Coeff:      0.337D-03 0.206D-01-0.365D-01-0.106D+00 0.192D+00 0.931D+00
 Gap=     0.500 Goal=   None    Shift=    0.000
 RMSDP=9.72D-09 MaxDP=2.60D-07 DE=-1.36D-11 OVMax= 6.36D-07

 SCF Done:  E(RHF) =  -389.155294494     A.U. after   12 cycles
            NFock= 12  Conv=0.97D-08     -V/T= 2.0014
 KE= 3.886243913933D+02 PE=-1.931189910676D+03 EE= 6.401324042310D+02
 Leave Link  502 at Fri Sep 17 13:33:08 2021, MaxMem=   524288000 cpu:              22.3 elap:              22.8
 (Enter /opt/gaussian/g16_legacy/l801.exe)
 ExpMin= 1.61D-01 ExpMax= 3.05D+03 ExpMxC= 4.57D+02 IAcc=3 IRadAn=         5 AccDes= 0.00D+00
 HarFok:  IExCor=  205 AccDes= 0.00D+00 IRadAn=         5 IDoV=-2 UseB2=F ITyADJ=14
 ICtDFT= 12500011 ScaDFX=  1.000000  1.000000  1.000000  1.000000
 Largest valence mixing into a core orbital is  1.97D-04
 Largest core mixing into a valence orbital is  3.52D-05
 Range of M.O.s used for correlation:    11   240
 NBasis=   240 NAE=    39 NBE=    39 NFC=    10 NFV=     0
 NROrb=    230 NOA=    29 NOB=    29 NVA=   201 NVB=   201
 Leave Link  801 at Fri Sep 17 13:33:09 2021, MaxMem=   524288000 cpu:               0.9 elap:               1.3
 (Enter /opt/gaussian/g16_legacy/l906.exe)
 Frozen-core derivative calculation, NFC=  10 NFV=   0.
 FulOut=F Deriv=T AODrv=T NAtomX=    28
   MMem=          89  MDisk=          29 MDiskD=          29
  W3Min=     2246400 MinDsk=     2795480 NBas6D=         240
 NBas2D=       29244    NTT=       28920    LW2=     2040000
    MDV=   523629461 MDiskM=       30186 NBas2p=       24099
 Fully direct method using O(ONN) memory.
 IMap=   1   2   3   4   5   6   7   8   9  10  11  12  13  14  15  16  17  18  19  20
 IMap=  21  22  23  24  25  26  27  28  29  30  31  32  33  34  35  36  37  38  39
 JobTyp=1 Pass  1:  I=  11 to  39 NPSUse=  1 ParTrn=F ParDer=F DoDerP=T.
 Spin components of T(2) and E(2):
     alpha-alpha T2 =       0.5711554293D-01 E2=     -0.1637344192D+00
     alpha-beta  T2 =       0.3617451192D+00 E2=     -0.1089193404D+01
     beta-beta   T2 =       0.5711554293D-01 E2=     -0.1637344192D+00
 The integrals were generated   1 times.
 ANorm=    0.1214897611D+01
 E2 =    -0.1416662242D+01 EUMP2 =    -0.39057195673674D+03
 Leave Link  906 at Fri Sep 17 13:35:57 2021, MaxMem=   524288000 cpu:             167.5 elap:             167.7
 (Enter /opt/gaussian/g16_legacy/l1002.exe)
 Minotr:  Closed shell wavefunction.
          Computing MP2/KS-MP2 derivatives.
          Using Z-Vector for PSCF gradient.
          Skipping F1 and S1 gradient terms here.
          IDoAtm=1111111111111111111111111111
          Frozen-core window.
          Direct CPHF calculation.
          Differentiating once with respect to electric field.
                with respect to dipole field.
          Differentiating once with respect to nuclear coordinates.
          Requested convergence is 1.0D-10 RMS, and 1.0D-09 maximum.
          NewPWx=F KeepS1=T KeepF1=T KeepIn=T MapXYZ=F SortEE=F KeepMc=T.
 Keep R1 ints in memory in canonical form, NReq=425201067.
 FoFCou: FMM=F IPFlag=           0 FMFlag=           0 FMFlg1=           0
         NFxFlg=           0 DoJE=F BraDBF=F KetDBF=F FulRan=T
         wScrn=  0.000000 ICntrl=       600 IOpCl=  0 I1Cent=           0 NGrid=           0
         NMat0=    1 NMatS0=  28920 NMatT0=    0 NMatD0=    1 NMtDS0=    0 NMtDT0=    0
 Symmetry not used in FoFCou.
 Two-electron integral symmetry not used.
          MDV=     524288000 using IRadAn=       5.
          Solving linear equations separately, MaxMat=       0.
          There are     1 degrees of freedom in the 1st order CPHF.  IDoFFX=0 NUNeed=     1.
 LinEq1:  Iter=  0 NonCon=     1 RMS=2.55D-03 Max=4.26D-02 NDo=     1
 AX will form     1 AO Fock derivatives at one time.
 LinEq1:  Iter=  1 NonCon=     1 RMS=6.89D-04 Max=1.12D-02 NDo=     1
 LinEq1:  Iter=  2 NonCon=     1 RMS=1.61D-04 Max=4.13D-03 NDo=     1
 LinEq1:  Iter=  3 NonCon=     1 RMS=4.42D-05 Max=5.11D-04 NDo=     1
 LinEq1:  Iter=  4 NonCon=     1 RMS=1.99D-05 Max=8.26D-04 NDo=     1
 LinEq1:  Iter=  5 NonCon=     1 RMS=4.81D-06 Max=8.80D-05 NDo=     1
 LinEq1:  Iter=  6 NonCon=     1 RMS=1.45D-06 Max=2.32D-05 NDo=     1
 LinEq1:  Iter=  7 NonCon=     1 RMS=4.00D-07 Max=4.12D-06 NDo=     1
 LinEq1:  Iter=  8 NonCon=     1 RMS=8.44D-08 Max=1.47D-06 NDo=     1
 LinEq1:  Iter=  9 NonCon=     1 RMS=2.22D-08 Max=5.48D-07 NDo=     1
 LinEq1:  Iter= 10 NonCon=     1 RMS=7.37D-09 Max=1.94D-07 NDo=     1
 LinEq1:  Iter= 11 NonCon=     1 RMS=2.35D-09 Max=7.27D-08 NDo=     1
 LinEq1:  Iter= 12 NonCon=     1 RMS=8.55D-10 Max=1.38D-08 NDo=     1
 LinEq1:  Iter= 13 NonCon=     1 RMS=2.39D-10 Max=3.46D-09 NDo=     1
 LinEq1:  Iter= 14 NonCon=     0 RMS=5.52D-11 Max=6.92D-10 NDo=     1
 Linear equations converged to 1.000D-10 1.000D-09 after    14 iterations.
 End of Minotr F.D. properties file   721 does not exist.
 End of Minotr F.D. properties file   722 does not exist.
 End of Minotr F.D. properties file   788 does not exist.
 Leave Link 1002 at Fri Sep 17 13:36:20 2021, MaxMem=   524288000 cpu:              23.0 elap:              23.2
 (Enter /opt/gaussian/g16_legacy/l601.exe)
 Copying SCF densities to generalized density rwf, IOpCl= 0 IROHF=0.

 **********************************************************************

            Population analysis using the SCF density.

 **********************************************************************

 Orbital symmetries:
       Occupied  (A) (A) (A) (A) (A) (A) (A) (A) (A) (A) (A) (A)
                 (A) (A) (A) (A) (A) (A) (A) (A) (A) (A) (A) (A)
                 (A) (A) (A) (A) (A) (A) (A) (A) (A) (A) (A) (A)
                 (A) (A) (A)
       Virtual   (A) (A) (A) (A) (A) (A) (A) (A) (A) (A) (A) (A)
                 (A) (A) (A) (A) (A) (A) (A) (A) (A) (A) (A) (A)
                 (A) (A) (A) (A) (A) (A) (A) (A) (A) (A) (A) (A)
                 (A) (A) (A) (A) (A) (A) (A) (A) (A) (A) (A) (A)
                 (A) (A) (A) (A) (A) (A) (A) (A) (A) (A) (A) (A)
                 (A) (A) (A) (A) (A) (A) (A) (A) (A) (A) (A) (A)
                 (A) (A) (A) (A) (A) (A) (A) (A) (A) (A) (A) (A)
                 (A) (A) (A) (A) (A) (A) (A) (A) (A) (A) (A) (A)
                 (A) (A) (A) (A) (A) (A) (A) (A) (A) (A) (A) (A)
                 (A) (A) (A) (A) (A) (A) (A) (A) (A) (A) (A) (A)
                 (A) (A) (A) (A) (A) (A) (A) (A) (A) (A) (A) (A)
                 (A) (A) (A) (A) (A) (A) (A) (A) (A) (A) (A) (A)
                 (A) (A) (A) (A) (A) (A) (A) (A) (A) (A) (A) (A)
                 (A) (A) (A) (A) (A) (A) (A) (A) (A) (A) (A) (A)
                 (A) (A) (A) (A) (A) (A) (A) (A) (A) (A) (A) (A)
                 (A) (A) (A) (A) (A) (A) (A) (A) (A) (A) (A) (A)
                 (A) (A) (A) (A) (A) (A) (A) (A) (A)
 The electronic state is 1-A.
 Alpha  occ. eigenvalues --  -11.23060 -11.22491 -11.21993 -11.21920 -11.21894
 Alpha  occ. eigenvalues --  -11.21650 -11.21538 -11.21500 -11.21457 -11.21436
 Alpha  occ. eigenvalues --   -1.10615  -1.08328  -1.01892  -0.98024  -0.93647
 Alpha  occ. eigenvalues --   -0.91773  -0.86738  -0.82690  -0.70609  -0.69413
 Alpha  occ. eigenvalues --   -0.64402  -0.61334  -0.60398  -0.59007  -0.58077
 Alpha  occ. eigenvalues --   -0.56878  -0.55468  -0.55041  -0.53553  -0.51978
 Alpha  occ. eigenvalues --   -0.51779  -0.51259  -0.50451  -0.49764  -0.47238
 Alpha  occ. eigenvalues --   -0.46644  -0.44231  -0.33254  -0.31613
 Alpha virt. eigenvalues --    0.18419   0.19608   0.22268   0.24508   0.24867
 Alpha virt. eigenvalues --    0.27280   0.28582   0.29021   0.30342   0.30570
 Alpha virt. eigenvalues --    0.31452   0.32295   0.32994   0.33606   0.33918
 Alpha virt. eigenvalues --    0.34861   0.36107   0.37174   0.38359   0.39994
 Alpha virt. eigenvalues --    0.40807   0.41937   0.42663   0.44321   0.45311
 Alpha virt. eigenvalues --    0.51884   0.54069   0.61044   0.62386   0.69420
 Alpha virt. eigenvalues --    0.71419   0.71711   0.74323   0.75991   0.76601
 Alpha virt. eigenvalues --    0.77889   0.78837   0.80150   0.80438   0.82525
 Alpha virt. eigenvalues --    0.82865   0.85807   0.89230   0.90312   0.92128
 Alpha virt. eigenvalues --    0.93067   0.94946   0.96558   0.97593   0.99409
 Alpha virt. eigenvalues --    0.99666   1.01112   1.02715   1.04773   1.06344
 Alpha virt. eigenvalues --    1.07245   1.08351   1.08464   1.10883   1.12201
 Alpha virt. eigenvalues --    1.13082   1.13493   1.14142   1.15109   1.15427
 Alpha virt. eigenvalues --    1.15972   1.16404   1.17990   1.18282   1.20091
 Alpha virt. eigenvalues --    1.20925   1.22025   1.22903   1.24885   1.26883
 Alpha virt. eigenvalues --    1.29777   1.39909   1.40851   1.44072   1.45167
 Alpha virt. eigenvalues --    1.46113   1.53922   1.55256   1.57486   1.59004
 Alpha virt. eigenvalues --    1.61320   1.62901   1.65439   1.68694   1.70718
 Alpha virt. eigenvalues --    1.74996   1.83309   1.90945   1.92635   1.95888
 Alpha virt. eigenvalues --    1.98116   2.01343   2.02513   2.04962   2.08418
 Alpha virt. eigenvalues --    2.09277   2.11237   2.11877   2.13548   2.13761
 Alpha virt. eigenvalues --    2.15744   2.17935   2.19183   2.23537   2.27675
 Alpha virt. eigenvalues --    2.27929   2.30153   2.32116   2.34933   2.35557
 Alpha virt. eigenvalues --    2.35640   2.35787   2.39413   2.39796   2.40228
 Alpha virt. eigenvalues --    2.41252   2.41848   2.42901   2.44987   2.45577
 Alpha virt. eigenvalues --    2.47187   2.49011   2.49667   2.49767   2.53202
 Alpha virt. eigenvalues --    2.56184   2.58402   2.60484   2.62612   2.64592
 Alpha virt. eigenvalues --    2.66043   2.67900   2.71567   2.72558   2.74075
 Alpha virt. eigenvalues --    2.76095   2.77693   2.80998   2.82553   2.84077
 Alpha virt. eigenvalues --    2.86959   2.90352   2.92349   2.93717   2.93883
 Alpha virt. eigenvalues --    2.97259   2.98946   3.00897   3.02345   3.04615
 Alpha virt. eigenvalues --    3.06568   3.07050   3.09532   3.11568   3.16237
 Alpha virt. eigenvalues --    3.17175   3.17506   3.19750   3.20505   3.20974
 Alpha virt. eigenvalues --    3.22294   3.25236   3.26470   3.27443   3.37023
 Alpha virt. eigenvalues --    3.39003   3.44378   3.45748   3.55483   3.57308
 Alpha virt. eigenvalues --    3.58492   3.60437   3.67988   3.73338   3.78353
 Alpha virt. eigenvalues --    3.78758   3.80290   3.81204   3.82236   3.82863
 Alpha virt. eigenvalues --    3.83541   3.85733   3.87951   3.89125   3.90865
 Alpha virt. eigenvalues --    3.96056   4.59176   4.62295   4.74495   4.82466
 Alpha virt. eigenvalues --    4.89198   4.92416   4.93232   5.07345   5.10306
 Alpha virt. eigenvalues --    5.16931
          Condensed to atoms (all electrons):
               1          2          3          4          5          6
     1  C    5.000730   0.414389   0.412401   0.339578  -0.058816  -0.000424
     2  H    0.414389   0.576741  -0.030317  -0.040671   0.003304  -0.000036
     3  H    0.412401  -0.030317   0.583735  -0.045108  -0.004628  -0.000305
     4  C    0.339578  -0.040671  -0.045108   4.957291   0.350732  -0.046051
     5  C   -0.058816   0.003304  -0.004628   0.350732   4.895168   0.399652
     6  H   -0.000424  -0.000036  -0.000305  -0.046051   0.399652   0.598093
     7  H   -0.003456  -0.000014   0.002507  -0.043206   0.397607  -0.035176
     8  H    0.003652  -0.000107   0.000092  -0.041417   0.406590  -0.028118
     9  C   -0.043504  -0.002303   0.001832   0.696643  -0.045823  -0.000963
    10  H    0.003081   0.000055  -0.000112  -0.036449  -0.006440   0.000130
    11  C   -0.007012  -0.002043   0.000131  -0.050639   0.003399  -0.000102
    12  H    0.000233  -0.000035  -0.000010   0.000511  -0.000102   0.000015
    13  H    0.000216   0.000157   0.000029  -0.001299  -0.000114  -0.000005
    14  H   -0.002040  -0.001244   0.000011  -0.000448   0.000090   0.000001
    15  C    0.000487  -0.000011   0.000129  -0.000018  -0.000017  -0.000029
    16  H    0.000071  -0.000000  -0.000066  -0.000002   0.000000  -0.000001
    17  H   -0.000041   0.000000   0.000012   0.000001  -0.000000  -0.000000
    18  H    0.000080  -0.000011   0.000148  -0.000063   0.000095   0.000222
    19  C   -0.002757   0.000602   0.000933  -0.000035   0.000007   0.000017
    20  C   -0.000105  -0.000001  -0.000032   0.000001  -0.000000  -0.000000
    21  H    0.000021  -0.000001  -0.000005  -0.000000   0.000000   0.000000
    22  H   -0.000004   0.000000   0.000001   0.000000  -0.000000   0.000000
    23  H   -0.000002   0.000002  -0.000002   0.000000  -0.000000  -0.000000
    24  C   -0.062591  -0.001373  -0.000487   0.006103  -0.000076  -0.000082
    25  H   -0.000349   0.001131   0.000186  -0.000118  -0.000002  -0.000000
    26  C    0.325372  -0.041402  -0.042889  -0.056895  -0.000804   0.000832
    27  H   -0.045269  -0.002681   0.004394  -0.001368   0.000304   0.000016
    28  H   -0.040030   0.004047  -0.002358  -0.002269  -0.000487  -0.000581
               7          8          9         10         11         12
     1  C   -0.003456   0.003652  -0.043504   0.003081  -0.007012   0.000233
     2  H   -0.000014  -0.000107  -0.002303   0.000055  -0.002043  -0.000035
     3  H    0.002507   0.000092   0.001832  -0.000112   0.000131  -0.000010
     4  C   -0.043206  -0.041417   0.696643  -0.036449  -0.050639   0.000511
     5  C    0.397607   0.406590  -0.045823  -0.006440   0.003399  -0.000102
     6  H   -0.035176  -0.028118  -0.000963   0.000130  -0.000102   0.000015
     7  H    0.593352  -0.027583  -0.000480   0.000245  -0.000113  -0.000004
     8  H   -0.027583   0.570213  -0.002762   0.002176   0.000140  -0.000008
     9  C   -0.000480  -0.002762   4.939989   0.404573   0.338341  -0.042715
    10  H    0.000245   0.002176   0.404573   0.559853  -0.043629  -0.002623
    11  C   -0.000113   0.000140   0.338341  -0.043629   4.903490   0.402915
    12  H   -0.000004  -0.000008  -0.042715  -0.002623   0.402915   0.585831
    13  H    0.000021  -0.000004  -0.044527  -0.000244   0.400272  -0.033315
    14  H   -0.000001   0.000004  -0.041986   0.003343   0.408025  -0.029450
    15  C   -0.000002   0.000000  -0.000000  -0.000000  -0.000000  -0.000000
    16  H    0.000000  -0.000000   0.000000  -0.000000   0.000000   0.000000
    17  H    0.000000   0.000000   0.000000   0.000000   0.000000  -0.000000
    18  H    0.000005  -0.000001  -0.000001   0.000000  -0.000000   0.000000
    19  C   -0.000001  -0.000000  -0.000002   0.000000   0.000000   0.000000
    20  C    0.000000   0.000000  -0.000000   0.000000   0.000000  -0.000000
    21  H   -0.000000  -0.000000   0.000000  -0.000000  -0.000000   0.000000
    22  H   -0.000000   0.000000  -0.000000   0.000000  -0.000000  -0.000000
    23  H   -0.000000  -0.000000   0.000000   0.000000  -0.000000   0.000000
    24  C    0.000000   0.000002  -0.000010   0.000002  -0.000022  -0.000002
    25  H    0.000000   0.000000   0.000009  -0.000000  -0.000002  -0.000000
    26  C    0.000024  -0.000094  -0.003332  -0.000120   0.000493   0.000079
    27  H    0.000006  -0.000006   0.000945  -0.000032   0.000106  -0.000059
    28  H    0.000076  -0.000024   0.000498   0.000002  -0.000024   0.000000
              13         14         15         16         17         18
     1  C    0.000216  -0.002040   0.000487   0.000071  -0.000041   0.000080
     2  H    0.000157  -0.001244  -0.000011  -0.000000   0.000000  -0.000011
     3  H    0.000029   0.000011   0.000129  -0.000066   0.000012   0.000148
     4  C   -0.001299  -0.000448  -0.000018  -0.000002   0.000001  -0.000063
     5  C   -0.000114   0.000090  -0.000017   0.000000  -0.000000   0.000095
     6  H   -0.000005   0.000001  -0.000029  -0.000001  -0.000000   0.000222
     7  H    0.000021  -0.000001  -0.000002   0.000000   0.000000   0.000005
     8  H   -0.000004   0.000004   0.000000  -0.000000   0.000000  -0.000001
     9  C   -0.044527  -0.041986  -0.000000   0.000000   0.000000  -0.000001
    10  H   -0.000244   0.003343  -0.000000  -0.000000   0.000000   0.000000
    11  C    0.400272   0.408025  -0.000000   0.000000   0.000000  -0.000000
    12  H   -0.033315  -0.029450  -0.000000   0.000000  -0.000000   0.000000
    13  H    0.585280  -0.027469   0.000000  -0.000000   0.000000  -0.000000
    14  H   -0.027469   0.575208   0.000000  -0.000000   0.000000   0.000000
    15  C    0.000000   0.000000   4.906850   0.402440   0.398575   0.405943
    16  H   -0.000000  -0.000000   0.402440   0.585551  -0.033084  -0.029651
    17  H    0.000000   0.000000   0.398575  -0.033084   0.583055  -0.026875
    18  H   -0.000000   0.000000   0.405943  -0.029651  -0.026875   0.570747
    19  C   -0.000000   0.000001   0.348917  -0.043837  -0.043926  -0.036971
    20  C    0.000000  -0.000000  -0.065373  -0.003425  -0.001681   0.003707
    21  H   -0.000000  -0.000000  -0.002144   0.002838  -0.000367  -0.000072
    22  H    0.000000   0.000000  -0.001092  -0.000508   0.002543  -0.000024
    23  H   -0.000000   0.000000   0.003696   0.000012  -0.000080  -0.000109
    24  C    0.000002   0.000034  -0.043601   0.000407  -0.000742  -0.002889
    25  H   -0.000000   0.000035   0.003359  -0.000112  -0.000124   0.000053
    26  C   -0.000045  -0.000174  -0.007184   0.000276   0.000191  -0.002349
    27  H    0.000018   0.000114   0.000145  -0.000012   0.000033   0.000041
    28  H   -0.000000  -0.000005  -0.001878  -0.000035   0.000040  -0.001472
              19         20         21         22         23         24
     1  C   -0.002757  -0.000105   0.000021  -0.000004  -0.000002  -0.062591
     2  H    0.000602  -0.000001  -0.000001   0.000000   0.000002  -0.001373
     3  H    0.000933  -0.000032  -0.000005   0.000001  -0.000002  -0.000487
     4  C   -0.000035   0.000001  -0.000000   0.000000   0.000000   0.006103
     5  C    0.000007  -0.000000   0.000000  -0.000000  -0.000000  -0.000076
     6  H    0.000017  -0.000000   0.000000   0.000000  -0.000000  -0.000082
     7  H   -0.000001   0.000000  -0.000000  -0.000000  -0.000000   0.000000
     8  H   -0.000000   0.000000  -0.000000   0.000000  -0.000000   0.000002
     9  C   -0.000002  -0.000000   0.000000  -0.000000   0.000000  -0.000010
    10  H    0.000000   0.000000  -0.000000   0.000000   0.000000   0.000002
    11  C    0.000000   0.000000  -0.000000  -0.000000  -0.000000  -0.000022
    12  H    0.000000  -0.000000   0.000000  -0.000000   0.000000  -0.000002
    13  H   -0.000000   0.000000  -0.000000   0.000000  -0.000000   0.000002
    14  H    0.000001  -0.000000  -0.000000   0.000000   0.000000   0.000034
    15  C    0.348917  -0.065373  -0.002144  -0.001092   0.003696  -0.043601
    16  H   -0.043837  -0.003425   0.002838  -0.000508   0.000012   0.000407
    17  H   -0.043926  -0.001681  -0.000367   0.002543  -0.000080  -0.000742
    18  H   -0.036971   0.003707  -0.000072  -0.000024  -0.000109  -0.002889
    19  C    4.920204   0.351811  -0.044205  -0.045816  -0.040398   0.695490
    20  C    0.351811   4.903463   0.396989   0.399267   0.405378  -0.044531
    21  H   -0.044205   0.396989   0.594256  -0.034894  -0.027354  -0.000623
    22  H   -0.045816   0.399267  -0.034894   0.593134  -0.027568  -0.001111
    23  H   -0.040398   0.405378  -0.027354  -0.027568   0.568048  -0.002346
    24  C    0.695490  -0.044531  -0.000623  -0.001111  -0.002346   4.962323
    25  H   -0.035969  -0.006707   0.000224   0.000153   0.002203   0.403001
    26  C   -0.048864   0.003141  -0.000086  -0.000123   0.000141   0.341681
    27  H    0.000972  -0.000098  -0.000002   0.000012  -0.000011  -0.044012
    28  H    0.000558   0.000062  -0.000003   0.000004   0.000006  -0.043147
              25         26         27         28
     1  C   -0.000349   0.325372  -0.045269  -0.040030
     2  H    0.001131  -0.041402  -0.002681   0.004047
     3  H    0.000186  -0.042889   0.004394  -0.002358
     4  C   -0.000118  -0.056895  -0.001368  -0.002269
     5  C   -0.000002  -0.000804   0.000304  -0.000487
     6  H   -0.000000   0.000832   0.000016  -0.000581
     7  H    0.000000   0.000024   0.000006   0.000076
     8  H    0.000000  -0.000094  -0.000006  -0.000024
     9  C    0.000009  -0.003332   0.000945   0.000498
    10  H   -0.000000  -0.000120  -0.000032   0.000002
    11  C   -0.000002   0.000493   0.000106  -0.000024
    12  H   -0.000000   0.000079  -0.000059   0.000000
    13  H   -0.000000  -0.000045   0.000018  -0.000000
    14  H    0.000035  -0.000174   0.000114  -0.000005
    15  C    0.003359  -0.007184   0.000145  -0.001878
    16  H   -0.000112   0.000276  -0.000012  -0.000035
    17  H   -0.000124   0.000191   0.000033   0.000040
    18  H    0.000053  -0.002349   0.000041  -0.001472
    19  C   -0.035969  -0.048864   0.000972   0.000558
    20  C   -0.006707   0.003141  -0.000098   0.000062
    21  H    0.000224  -0.000086  -0.000002  -0.000003
    22  H    0.000153  -0.000123   0.000012   0.000004
    23  H    0.002203   0.000141  -0.000011   0.000006
    24  C    0.403001   0.341681  -0.044012  -0.043147
    25  H    0.558274  -0.041953  -0.003531   0.003305
    26  C   -0.041953   4.978468   0.415029   0.414992
    27  H   -0.003531   0.415029   0.581169  -0.029795
    28  H    0.003305   0.414992  -0.029795   0.579649
 Mulliken charges:
               1
     1  C   -0.233912
     2  H    0.121820
     3  H    0.119779
     4  C    0.015195
     5  C   -0.339640
     6  H    0.112892
     7  H    0.116189
     8  H    0.117255
     9  C   -0.154422
    10  H    0.116187
    11  C   -0.353725
    12  H    0.118740
    13  H    0.121027
    14  H    0.115951
    15  C   -0.349194
    16  H    0.119138
    17  H    0.122469
    18  H    0.119445
    19  C    0.023266
    20  C   -0.341867
    21  H    0.115429
    22  H    0.116025
    23  H    0.118384
    24  C   -0.161402
    25  H    0.116934
    26  C   -0.234406
    27  H    0.123571
    28  H    0.118869
 Sum of Mulliken charges =  -0.00000
 Mulliken charges with hydrogens summed into heavy atoms:
               1
     1  C    0.007687
     4  C    0.015195
     5  C    0.006697
     9  C   -0.038235
    11  C    0.001994
    15  C    0.011859
    19  C    0.023266
    20  C    0.007971
    24  C   -0.044468
    26  C    0.008033
 Electronic spatial extent (au):  <R**2>=           2544.9902
 Charge=             -0.0000 electrons
 Dipole moment (field-independent basis, Debye):
    X=             -0.3491    Y=              0.1468    Z=              0.0264  Tot=              0.3796
 Quadrupole moment (field-independent basis, Debye-Ang):
   XX=            -63.8842   YY=            -63.9181   ZZ=            -67.2164
   XY=             -0.9692   XZ=             -0.9079   YZ=             -0.2407
 Traceless Quadrupole moment (field-independent basis, Debye-Ang):
   XX=              1.1220   YY=              1.0881   ZZ=             -2.2101
   XY=             -0.9692   XZ=             -0.9079   YZ=             -0.2407
 Octapole moment (field-independent basis, Debye-Ang**2):
  XXX=             -0.9209  YYY=             -2.8092  ZZZ=              0.8875  XYY=              0.2805
  XXY=              1.7983  XXZ=             -2.7148  XZZ=             -1.8075  YZZ=              1.3750
  YYZ=              0.5306  XYZ=              0.3796
 Hexadecapole moment (field-independent basis, Debye-Ang**3):
 XXXX=          -2708.1871 YYYY=           -641.3419 ZZZZ=           -161.4607 XXXY=             -7.6968
 XXXZ=            -11.8574 YYYX=              8.1712 YYYZ=             -1.4935 ZZZX=             -2.8094
 ZZZY=              1.9635 XXYY=           -565.0357 XXZZ=           -492.0550 YYZZ=           -130.8326
 XXYZ=             -3.0977 YYXZ=             -1.7791 ZZXY=             -8.1559
 N-N= 5.132778205576D+02 E-N=-1.931189909681D+03  KE= 3.886243913933D+02
 No NMR shielding tensors so no spin-rotation constants.
 Leave Link  601 at Fri Sep 17 13:36:20 2021, MaxMem=   524288000 cpu:               0.2 elap:               0.4
 (Enter /opt/gaussian/g16_legacy/l701.exe)
 ... and contract with generalized density number  2.
 Compute integral first derivatives.
 Leave Link  701 at Fri Sep 17 13:36:21 2021, MaxMem=   524288000 cpu:               0.2 elap:               0.3
 (Enter /opt/gaussian/g16_legacy/l702.exe)
 L702 exits ... SP integral derivatives will be done elsewhere.
 Leave Link  702 at Fri Sep 17 13:36:21 2021, MaxMem=   524288000 cpu:               0.0 elap:               0.0
 (Enter /opt/gaussian/g16_legacy/l703.exe)
 Integral derivatives from FoFJK, PRISM(SPDF).
 Compute integral first derivatives, UseDBF=F ICtDFT=           0.
 Calling FoFJK, ICntrl=  10002127 FMM=F ISym2X=0 I1Cent= 0 IOpClX= 0 NMat=1 NMatS=1 NMatT=0.
 FoFJK:  IHMeth= 1 ICntrl=10002127 DoSepK=F KAlg= 0 I1Cent=           0 FoldK=F
 IRaf=         0 NMat=       1 IRICut=       1 DoRegI=T DoRafI=F ISym2E= 0 IDoP0=0 IntGTp=1.
 FoFCou: FMM=F IPFlag=           0 FMFlag=      100000 FMFlg1=         800
         NFxFlg=           0 DoJE=F BraDBF=F KetDBF=F FulRan=T
         wScrn=  0.000000 ICntrl=  10002127 IOpCl=  0 I1Cent=           0 NGrid=           0
         NMat0=    1 NMatS0=      1 NMatT0=    0 NMatD0=    1 NMtDS0=    0 NMtDT0=    0
 Symmetry not used in FoFCou.
 Leave Link  703 at Fri Sep 17 13:36:41 2021, MaxMem=   524288000 cpu:              19.7 elap:              19.9
 (Enter /opt/gaussian/g16_legacy/l716.exe)
 Dipole        =-1.00099557D-01 3.50182667D-02 3.68097845D-03
 ***** Axes restored to original set *****
 -------------------------------------------------------------------
 Center     Atomic                   Forces (Hartrees/Bohr)
 Number     Number              X              Y              Z
 -------------------------------------------------------------------
      1        6           0.008294021   -0.002139521    0.003161407
      2        1          -0.000277115    0.002684426   -0.002934087
      3        1           0.000212657    0.001401046   -0.004181445
      4        6           0.002830894   -0.000423475    0.005426150
      5        6           0.002761899    0.001130030   -0.000306351
      6        1          -0.000425849   -0.000180283    0.003303793
      7        1          -0.001154202    0.001525148   -0.002763195
      8        1          -0.002880894   -0.002749880   -0.001175992
      9        6          -0.002173626    0.002305132   -0.001828096
     10        1          -0.003283991    0.001159883    0.000563102
     11        6          -0.000855124   -0.002307500   -0.001364733
     12        1          -0.000334057   -0.002043366    0.002849914
     13        1          -0.000151494   -0.001017594   -0.003224053
     14        1           0.001967719    0.001977341    0.001995812
     15        6           0.003806903    0.002729732    0.000766561
     16        1          -0.000583002    0.000001337   -0.003649982
     17        1          -0.000749237   -0.000051463    0.003029182
     18        1          -0.001588844   -0.002488654   -0.001943495
     19        6           0.001430039   -0.005187678    0.001445813
     20        6           0.000951810   -0.003176757   -0.000348824
     21        1          -0.001458999    0.001116731   -0.003015999
     22        1          -0.000663073   -0.000526935    0.003276121
     23        1           0.000989899    0.004119206    0.000904865
     24        6           0.001613059    0.002796006   -0.003964698
     25        1          -0.002631501    0.001652746    0.001337740
     26        6          -0.006738552   -0.000482196   -0.003807284
     27        1           0.001213805    0.000362295    0.004055471
     28        1          -0.000123146   -0.002185757    0.002392304
 -------------------------------------------------------------------
 Cartesian Forces:  Max     0.008294021 RMS     0.002544822
 Leave Link  716 at Fri Sep 17 13:36:42 2021, MaxMem=   524288000 cpu:               0.0 elap:               0.5
 (Enter /opt/gaussian/g16_legacy/l103.exe)

 GradGradGradGradGradGradGradGradGradGradGradGradGradGradGradGradGradGrad
 Berny optimization.
 FormGI is forming the generalized inverse of G from B-inverse, IUseBI=4.
 Internal  Forces:  Max     0.004126121 RMS     0.001894760
 Search for a local minimum.
 Step number   1 out of a maximum of  138
 All quantities printed in internal units (Hartrees-Bohrs-Radians)
 RMS Force = .18948D-02 SwitMx=.10000D-02 MixMth= 1
 Mixed Optimization -- RFO/linear search
 Second derivative matrix not updated -- first step.
 ITU=  0
     Eigenvalues ---    0.00342   0.00569   0.00668   0.00680   0.00693
     Eigenvalues ---    0.00716   0.00819   0.01219   0.01287   0.01569
     Eigenvalues ---    0.01642   0.02780   0.02784   0.04015   0.04133
     Eigenvalues ---    0.05350   0.05403   0.06982   0.07038   0.07087
     Eigenvalues ---    0.07092   0.07265   0.07301   0.07347   0.07505
     Eigenvalues ---    0.09278   0.09364   0.12769   0.12845   0.15999
     Eigenvalues ---    0.15999   0.16000   0.16000   0.16000   0.16000
     Eigenvalues ---    0.16000   0.16000   0.16000   0.16000   0.16000
     Eigenvalues ---    0.16000   0.16000   0.16000   0.21860   0.21867
     Eigenvalues ---    0.22000   0.22000   0.24993   0.24996   0.24998
     Eigenvalues ---    0.24999   0.29238   0.30865   0.31612   0.31703
     Eigenvalues ---    0.31802   0.31983   0.32805   0.33869   0.33938
     Eigenvalues ---    0.34061   0.34190   0.34220   0.34232   0.34241
     Eigenvalues ---    0.34249   0.34249   0.34253   0.34271   0.34288
     Eigenvalues ---    0.34292   0.34340   0.34532   0.34557   0.34789
     Eigenvalues ---    0.34850   0.55505   0.55576
 RFO step:  Lambda=-2.87215527D-03 EMin= 3.42488229D-03
 Linear search not attempted -- first point.
 Iteration  1 RMS(Cart)=  0.04044360 RMS(Int)=  0.00070858
 Iteration  2 RMS(Cart)=  0.00101886 RMS(Int)=  0.00015664
 Iteration  3 RMS(Cart)=  0.00000056 RMS(Int)=  0.00015664
 ITry= 1 IFail=0 DXMaxC= 1.41D-01 DCOld= 1.00D+10 DXMaxT= 3.00D-01 DXLimC= 3.00D+00 Rises=F
 Variable       Old X    -DE/DX   Delta X   Delta X   Delta X     New X
                                 (Linear)    (Quad)   (Total)
    R1        2.07228  -0.00295   0.00000  -0.00859  -0.00859   2.06368
    R2        2.07551  -0.00307   0.00000  -0.00899  -0.00899   2.06652
    R3        2.86270  -0.00351   0.00000  -0.01126  -0.01126   2.85144
    R4        2.89508   0.00160   0.00000   0.00542   0.00542   2.90051
    R5        2.84859  -0.00060   0.00000  -0.00187  -0.00187   2.84672
    R6        2.54686  -0.00387   0.00000  -0.00694  -0.00694   2.53992
    R7        2.06847  -0.00174   0.00000  -0.00504  -0.00504   2.06343
    R8        2.06911  -0.00215   0.00000  -0.00622  -0.00622   2.06290
    R9        2.06961  -0.00375   0.00000  -0.01087  -0.01087   2.05874
   R10        2.05919  -0.00216   0.00000  -0.00615  -0.00615   2.05305
   R11        2.82696   0.00309   0.00000   0.00933   0.00933   2.83629
   R12        2.06905  -0.00271   0.00000  -0.00784  -0.00784   2.06122
   R13        2.06761  -0.00157   0.00000  -0.00453  -0.00453   2.06307
   R14        2.06401  -0.00303   0.00000  -0.00869  -0.00869   2.05532
   R15        2.07011  -0.00272   0.00000  -0.00788  -0.00788   2.06222
   R16        2.06875  -0.00185   0.00000  -0.00536  -0.00536   2.06340
   R17        2.06441  -0.00297   0.00000  -0.00852  -0.00852   2.05589
   R18        2.84174  -0.00044   0.00000  -0.00136  -0.00136   2.84038
   R19        2.84692  -0.00076   0.00000  -0.00237  -0.00237   2.84455
   R20        2.54624  -0.00323   0.00000  -0.00578  -0.00578   2.54045
   R21        2.06913  -0.00200   0.00000  -0.00578  -0.00578   2.06335
   R22        2.06925  -0.00203   0.00000  -0.00588  -0.00588   2.06337
   R23        2.06940  -0.00394   0.00000  -0.01140  -0.01140   2.05800
   R24        2.06018  -0.00205   0.00000  -0.00586  -0.00586   2.05433
   R25        2.84508  -0.00140   0.00000  -0.00436  -0.00436   2.84072
   R26        2.07435  -0.00273   0.00000  -0.00798  -0.00798   2.06636
   R27        2.06841  -0.00239   0.00000  -0.00691  -0.00691   2.06150
    A1        1.83010   0.00205   0.00000   0.02209   0.02192   1.85202
    A2        1.93121  -0.00018   0.00000   0.00559   0.00561   1.93682
    A3        1.91966  -0.00200   0.00000  -0.01361  -0.01365   1.90600
    A4        1.90138  -0.00009   0.00000   0.00118   0.00118   1.90256
    A5        1.91829  -0.00276   0.00000  -0.02417  -0.02420   1.89409
    A6        1.95878   0.00288   0.00000   0.00943   0.00946   1.96824
    A7        2.00706   0.00174   0.00000   0.00720   0.00665   2.01371
    A8        2.17223  -0.00413   0.00000  -0.01593  -0.01645   2.15578
    A9        2.10369   0.00240   0.00000   0.00990   0.00935   2.11304
   A10        1.92852   0.00227   0.00000   0.01212   0.01215   1.94067
   A11        1.92481   0.00165   0.00000   0.00904   0.00906   1.93386
   A12        1.95927  -0.00266   0.00000  -0.01335  -0.01332   1.94595
   A13        1.89459  -0.00305   0.00000  -0.02451  -0.02451   1.87008
   A14        1.87691   0.00055   0.00000   0.00554   0.00558   1.88249
   A15        1.87756   0.00112   0.00000   0.01035   0.01038   1.88794
   A16        2.06927  -0.00195   0.00000  -0.01343  -0.01345   2.05581
   A17        2.22588  -0.00182   0.00000  -0.00811  -0.00813   2.21775
   A18        1.98791   0.00377   0.00000   0.02172   0.02170   2.00961
   A19        1.91004   0.00237   0.00000   0.01554   0.01549   1.92553
   A20        1.91741   0.00384   0.00000   0.02263   0.02259   1.94000
   A21        1.98084  -0.00284   0.00000  -0.01748  -0.01740   1.96344
   A22        1.88710  -0.00305   0.00000  -0.01870  -0.01887   1.86823
   A23        1.87280   0.00045   0.00000   0.00447   0.00453   1.87734
   A24        1.89303  -0.00095   0.00000  -0.00755  -0.00746   1.88558
   A25        1.89073  -0.00238   0.00000  -0.02153  -0.02152   1.86922
   A26        1.86352   0.00195   0.00000   0.01660   0.01662   1.88014
   A27        1.92094  -0.00001   0.00000  -0.00098  -0.00097   1.91997
   A28        1.88478   0.00022   0.00000   0.00328   0.00330   1.88809
   A29        1.92167   0.00226   0.00000   0.01143   0.01145   1.93312
   A30        1.97931  -0.00212   0.00000  -0.00959  -0.00957   1.96974
   A31        1.99476   0.00146   0.00000   0.00581   0.00578   2.00054
   A32        2.18286  -0.00336   0.00000  -0.01325  -0.01327   2.16959
   A33        2.10552   0.00190   0.00000   0.00755   0.00753   2.11305
   A34        1.92492   0.00221   0.00000   0.01242   0.01245   1.93737
   A35        1.92338   0.00176   0.00000   0.00886   0.00888   1.93227
   A36        1.96067  -0.00278   0.00000  -0.01392  -0.01388   1.94679
   A37        1.89484  -0.00314   0.00000  -0.02544  -0.02543   1.86941
   A38        1.87917   0.00092   0.00000   0.00936   0.00939   1.88857
   A39        1.87884   0.00091   0.00000   0.00788   0.00791   1.88675
   A40        2.06741  -0.00180   0.00000  -0.01221  -0.01261   2.05480
   A41        2.22783  -0.00178   0.00000  -0.00780  -0.00821   2.21962
   A42        1.98781   0.00359   0.00000   0.02083   0.02041   2.00823
   A43        1.94440   0.00332   0.00000   0.01375   0.01380   1.95819
   A44        1.91644  -0.00338   0.00000  -0.02324  -0.02344   1.89300
   A45        1.93096  -0.00168   0.00000  -0.01701  -0.01709   1.91388
   A46        1.88208   0.00136   0.00000   0.02215   0.02227   1.90435
   A47        1.94470  -0.00129   0.00000  -0.00729  -0.00723   1.93747
   A48        1.84172   0.00156   0.00000   0.01197   0.01171   1.85342
    D1       -2.64813  -0.00157   0.00000  -0.05495  -0.05476  -2.70289
    D2        0.47151  -0.00062   0.00000   0.00629   0.00608   0.47759
    D3       -0.64496   0.00074   0.00000  -0.02462  -0.02440  -0.66935
    D4        2.47468   0.00170   0.00000   0.03662   0.03644   2.51113
    D5        1.48350  -0.00091   0.00000  -0.04818  -0.04800   1.43550
    D6       -1.68005   0.00005   0.00000   0.01306   0.01284  -1.66720
    D7        0.96572   0.00054   0.00000   0.01708   0.01708   0.98280
    D8       -1.11811  -0.00105   0.00000  -0.00410  -0.00392  -1.12202
    D9        3.13918   0.00005   0.00000   0.00511   0.00508  -3.13893
   D10       -1.04065   0.00078   0.00000   0.01194   0.01186  -1.02879
   D11       -3.12447  -0.00082   0.00000  -0.00924  -0.00914  -3.13361
   D12        1.13282   0.00028   0.00000  -0.00002  -0.00015   1.13267
   D13        3.12375   0.00088   0.00000   0.02101   0.02096  -3.13848
   D14        1.03992  -0.00072   0.00000  -0.00017  -0.00005   1.03988
   D15       -0.98598   0.00038   0.00000   0.00905   0.00895  -0.97702
   D16       -1.05680   0.00117   0.00000   0.05461   0.05489  -1.00191
[...]
                 (A) (A) (A) (A) (A) (A) (A) (A) (A) (A) (A) (A)
                 (A) (A) (A) (A) (A) (A) (A) (A) (A) (A) (A) (A)
                 (A) (A) (A) (A) (A) (A) (A) (A) (A) (A) (A) (A)
                 (A) (A) (A) (A) (A) (A) (A) (A) (A) (A) (A) (A)
                 (A) (A) (A) (A) (A) (A) (A) (A) (A) (A) (A) (A)
                 (A) (A) (A) (A) (A) (A) (A) (A) (A) (A) (A) (A)
                 (A) (A) (A) (A) (A) (A) (A) (A) (A) (A) (A) (A)
                 (A) (A) (A) (A) (A) (A) (A) (A) (A) (A) (A) (A)
                 (A) (A) (A) (A) (A) (A) (A) (A) (A) (A) (A) (A)
                 (A) (A) (A) (A) (A) (A) (A) (A) (A) (A) (A) (A)
                 (A) (A) (A) (A) (A) (A) (A) (A) (A) (A) (A) (A)
                 (A) (A) (A) (A) (A) (A) (A) (A) (A) (A) (A) (A)
                 (A) (A) (A) (A) (A) (A) (A) (A) (A) (A) (A) (A)
                 (A) (A) (A) (A) (A) (A) (A) (A) (A) (A) (A) (A)
                 (A) (A) (A) (A) (A) (A) (A) (A) (A)
 The electronic state is 1-A.
 Alpha  occ. eigenvalues --  -11.23028 -11.22456 -11.21863 -11.21726 -11.21721
 Alpha  occ. eigenvalues --  -11.21541 -11.21497 -11.21449 -11.21393 -11.21358
 Alpha  occ. eigenvalues --   -1.10803  -1.08495  -1.01828  -0.98138  -0.93839
 Alpha  occ. eigenvalues --   -0.91936  -0.86954  -0.82861  -0.70567  -0.69489
 Alpha  occ. eigenvalues --   -0.64754  -0.61539  -0.60720  -0.58828  -0.58414
 Alpha  occ. eigenvalues --   -0.56814  -0.55405  -0.54979  -0.53298  -0.52217
 Alpha  occ. eigenvalues --   -0.51714  -0.51214  -0.50653  -0.50166  -0.47383
 Alpha  occ. eigenvalues --   -0.46917  -0.44458  -0.33328  -0.31563
 Alpha virt. eigenvalues --    0.18100   0.19932   0.22053   0.24536   0.24955
 Alpha virt. eigenvalues --    0.27424   0.28601   0.28877   0.30353   0.30694
 Alpha virt. eigenvalues --    0.31966   0.32601   0.32969   0.33726   0.34466
 Alpha virt. eigenvalues --    0.35524   0.36421   0.37370   0.38662   0.39972
 Alpha virt. eigenvalues --    0.40998   0.42095   0.42777   0.44262   0.45477
 Alpha virt. eigenvalues --    0.51938   0.54227   0.61292   0.62632   0.69521
 Alpha virt. eigenvalues --    0.71676   0.71855   0.74127   0.75627   0.76300
 Alpha virt. eigenvalues --    0.77310   0.78587   0.80192   0.80428   0.82510
 Alpha virt. eigenvalues --    0.83060   0.85963   0.89706   0.90634   0.91906
 Alpha virt. eigenvalues --    0.92727   0.94246   0.96733   0.97890   0.99038
 Alpha virt. eigenvalues --    0.99663   1.01316   1.02330   1.04636   1.06421
 Alpha virt. eigenvalues --    1.06946   1.08561   1.08610   1.11036   1.12563
 Alpha virt. eigenvalues --    1.13528   1.14242   1.14315   1.15516   1.15561
 Alpha virt. eigenvalues --    1.15995   1.16443   1.18511   1.18881   1.20423
 Alpha virt. eigenvalues --    1.21361   1.22874   1.23837   1.26678   1.27279
 Alpha virt. eigenvalues --    1.29587   1.40505   1.41229   1.45131   1.46302
 Alpha virt. eigenvalues --    1.47303   1.54539   1.56916   1.57904   1.58162
 Alpha virt. eigenvalues --    1.61580   1.62900   1.65166   1.67986   1.70099
 Alpha virt. eigenvalues --    1.73688   1.82808   1.91104   1.92024   1.96649
 Alpha virt. eigenvalues --    1.98629   2.01394   2.02264   2.04662   2.08570
 Alpha virt. eigenvalues --    2.09659   2.11023   2.11867   2.13286   2.14333
 Alpha virt. eigenvalues --    2.15615   2.17830   2.19386   2.23464   2.28302
 Alpha virt. eigenvalues --    2.29342   2.30634   2.33018   2.35331   2.35655
 Alpha virt. eigenvalues --    2.35947   2.36091   2.39306   2.40246   2.40800
 Alpha virt. eigenvalues --    2.42218   2.43338   2.43738   2.45452   2.46063
 Alpha virt. eigenvalues --    2.47468   2.49490   2.50160   2.50478   2.53353
 Alpha virt. eigenvalues --    2.56171   2.59443   2.61268   2.62977   2.65059
 Alpha virt. eigenvalues --    2.67062   2.68311   2.71449   2.72617   2.74255
 Alpha virt. eigenvalues --    2.76086   2.77474   2.80595   2.82947   2.83712
 Alpha virt. eigenvalues --    2.86556   2.90534   2.92645   2.94406   2.94575
 Alpha virt. eigenvalues --    2.97681   2.98672   3.01242   3.02716   3.05048
 Alpha virt. eigenvalues --    3.06983   3.08131   3.09712   3.12652   3.17075
 Alpha virt. eigenvalues --    3.17580   3.18813   3.20184   3.20611   3.22304
 Alpha virt. eigenvalues --    3.23445   3.25849   3.26685   3.27777   3.38376
 Alpha virt. eigenvalues --    3.40097   3.45764   3.46979   3.56086   3.58279
 Alpha virt. eigenvalues --    3.59222   3.61997   3.68641   3.74872   3.78914
 Alpha virt. eigenvalues --    3.79698   3.81279   3.82681   3.83341   3.84006
 Alpha virt. eigenvalues --    3.84104   3.86511   3.88184   3.89137   3.91421
 Alpha virt. eigenvalues --    3.97579   4.59401   4.62757   4.74521   4.82179
 Alpha virt. eigenvalues --    4.89167   4.92294   4.93230   5.07407   5.10903
 Alpha virt. eigenvalues --    5.17835
          Condensed to atoms (all electrons):
               1          2          3          4          5          6
     1  C    5.003997   0.413411   0.412745   0.339222  -0.057161  -0.000045
     2  H    0.413411   0.576310  -0.028359  -0.039654   0.003215  -0.000012
     3  H    0.412745  -0.028359   0.584867  -0.045647  -0.004621  -0.000557
     4  C    0.339222  -0.039654  -0.045647   4.951262   0.352880  -0.045807
     5  C   -0.057161   0.003215  -0.004621   0.352880   4.891657   0.400489
     6  H   -0.000045  -0.000012  -0.000557  -0.045807   0.400489   0.599593
     7  H   -0.003571  -0.000037   0.002410  -0.041600   0.397676  -0.037732
     8  H    0.003819  -0.000111   0.000114  -0.042642   0.407271  -0.027516
     9  C   -0.046575  -0.001941   0.002347   0.696859  -0.046080  -0.000883
    10  H    0.003280   0.000029  -0.000115  -0.037937  -0.006573   0.000143
    11  C   -0.007739  -0.002699   0.000152  -0.049997   0.003357  -0.000102
    12  H    0.000295  -0.000067  -0.000013  -0.000357  -0.000097   0.000016
    13  H    0.000167   0.000160   0.000018  -0.000541  -0.000105  -0.000004
    14  H   -0.002166  -0.001508   0.000038  -0.000577   0.000102  -0.000002
    15  C    0.000549  -0.000016   0.000191  -0.000019  -0.000025  -0.000043
    16  H    0.000120  -0.000001  -0.000099  -0.000004   0.000001  -0.000001
    17  H   -0.000041   0.000000   0.000017   0.000001  -0.000000  -0.000000
    18  H   -0.000058  -0.000011   0.000094  -0.000061   0.000096   0.000361
    19  C   -0.004098   0.000622   0.001256  -0.000004   0.000007   0.000021
    20  C   -0.000102  -0.000001  -0.000045   0.000002  -0.000000  -0.000000
    21  H    0.000024  -0.000001  -0.000008  -0.000000   0.000000   0.000000
    22  H   -0.000005   0.000000   0.000002   0.000000  -0.000000   0.000000
    23  H   -0.000003   0.000002  -0.000002   0.000000  -0.000000  -0.000000
    24  C   -0.062090  -0.001230   0.000057   0.006210  -0.000074  -0.000104
    25  H   -0.000091   0.001049   0.000171  -0.000105  -0.000002  -0.000000
    26  C    0.331128  -0.042384  -0.045730  -0.055684  -0.001011   0.000669
    27  H   -0.046717  -0.002896   0.004692  -0.001441   0.000280  -0.000003
    28  H   -0.042601   0.004316  -0.002340  -0.002245  -0.000436  -0.000466
               7          8          9         10         11         12
     1  C   -0.003571   0.003819  -0.046575   0.003280  -0.007739   0.000295
     2  H   -0.000037  -0.000111  -0.001941   0.000029  -0.002699  -0.000067
     3  H    0.002410   0.000114   0.002347  -0.000115   0.000152  -0.000013
     4  C   -0.041600  -0.042642   0.696859  -0.037937  -0.049997  -0.000357
     5  C    0.397676   0.407271  -0.046080  -0.006573   0.003357  -0.000097
     6  H   -0.037732  -0.027516  -0.000883   0.000143  -0.000102   0.000016
     7  H    0.591603  -0.026708  -0.000465   0.000218  -0.000104  -0.000004
     8  H   -0.026708   0.568320  -0.002982   0.002347   0.000133  -0.000005
     9  C   -0.000465  -0.002982   4.938271   0.404337   0.340912  -0.041711
    10  H    0.000218   0.002347   0.404337   0.559262  -0.041317  -0.001238
    11  C   -0.000104   0.000133   0.340912  -0.041317   4.898015   0.401889
    12  H   -0.000004  -0.000005  -0.041711  -0.001238   0.401889   0.585671
    13  H    0.000017  -0.000006  -0.041774  -0.001163   0.401438  -0.035520
    14  H    0.000001   0.000005  -0.043875   0.003330   0.409145  -0.029082
    15  C   -0.000001   0.000000  -0.000000  -0.000000  -0.000000  -0.000000
    16  H    0.000000  -0.000000   0.000000  -0.000000   0.000000   0.000000
    17  H    0.000000   0.000000   0.000000   0.000000   0.000000  -0.000000
    18  H   -0.000000  -0.000001  -0.000001   0.000000  -0.000000   0.000000
    19  C   -0.000001  -0.000000  -0.000003   0.000000   0.000000   0.000000
    20  C    0.000000   0.000000  -0.000000   0.000000   0.000000  -0.000000
    21  H   -0.000000  -0.000000   0.000000  -0.000000  -0.000000   0.000000
    22  H    0.000000   0.000000  -0.000000   0.000000  -0.000000  -0.000000
    23  H   -0.000000  -0.000000  -0.000000   0.000000  -0.000000  -0.000000
    24  C    0.000003   0.000002   0.000036   0.000002  -0.000027  -0.000007
    25  H    0.000000   0.000000   0.000007  -0.000000  -0.000002  -0.000000
    26  C    0.000075  -0.000108  -0.004455  -0.000120   0.000509   0.000149
    27  H    0.000005  -0.000004   0.001236  -0.000038   0.000051  -0.000081
    28  H    0.000058  -0.000040   0.000648   0.000001  -0.000030  -0.000000
              13         14         15         16         17         18
     1  C    0.000167  -0.002166   0.000549   0.000120  -0.000041  -0.000058
     2  H    0.000160  -0.001508  -0.000016  -0.000001   0.000000  -0.000011
     3  H    0.000018   0.000038   0.000191  -0.000099   0.000017   0.000094
     4  C   -0.000541  -0.000577  -0.000019  -0.000004   0.000001  -0.000061
     5  C   -0.000105   0.000102  -0.000025   0.000001  -0.000000   0.000096
     6  H   -0.000004  -0.000002  -0.000043  -0.000001  -0.000000   0.000361
     7  H    0.000017   0.000001  -0.000001   0.000000   0.000000  -0.000000
     8  H   -0.000006   0.000005   0.000000  -0.000000   0.000000  -0.000001
     9  C   -0.041774  -0.043875  -0.000000   0.000000   0.000000  -0.000001
    10  H   -0.001163   0.003330  -0.000000  -0.000000   0.000000   0.000000
    11  C    0.401438   0.409145  -0.000000   0.000000   0.000000  -0.000000
    12  H   -0.035520  -0.029082  -0.000000   0.000000  -0.000000   0.000000
    13  H    0.584890  -0.027817   0.000000  -0.000000   0.000000  -0.000000
    14  H   -0.027817   0.577276   0.000000  -0.000000   0.000000   0.000000
    15  C    0.000000   0.000000   4.904567   0.401034   0.400306   0.406928
    16  H   -0.000000  -0.000000   0.401034   0.586876  -0.035758  -0.028092
    17  H    0.000000   0.000000   0.400306  -0.035758   0.585123  -0.026774
    18  H   -0.000000   0.000000   0.406928  -0.028092  -0.026774   0.570628
    19  C   -0.000000   0.000001   0.350683  -0.043358  -0.043642  -0.037727
    20  C    0.000000  -0.000000  -0.065053  -0.002670  -0.002204   0.003758
    21  H   -0.000000  -0.000000  -0.001990   0.002769  -0.000448  -0.000068
    22  H    0.000000   0.000000  -0.001177  -0.000486   0.002752  -0.000032
    23  H   -0.000000   0.000000   0.003789  -0.000029  -0.000055  -0.000115
    24  C    0.000002   0.000064  -0.044156  -0.000024  -0.000377  -0.003150
    25  H   -0.000000   0.000025   0.003541  -0.000122  -0.000120   0.000051
    26  C   -0.000037  -0.000554  -0.007949   0.000348   0.000140  -0.002567
    27  H    0.000025   0.000016   0.000178  -0.000014   0.000024   0.000062
    28  H   -0.000000  -0.000004  -0.002567  -0.000063   0.000086  -0.001998
              19         20         21         22         23         24
     1  C   -0.004098  -0.000102   0.000024  -0.000005  -0.000003  -0.062090
     2  H    0.000622  -0.000001  -0.000001   0.000000   0.000002  -0.001230
     3  H    0.001256  -0.000045  -0.000008   0.000002  -0.000002   0.000057
     4  C   -0.000004   0.000002  -0.000000   0.000000   0.000000   0.006210
     5  C    0.000007  -0.000000   0.000000  -0.000000  -0.000000  -0.000074
     6  H    0.000021  -0.000000   0.000000   0.000000  -0.000000  -0.000104
     7  H   -0.000001   0.000000  -0.000000   0.000000  -0.000000   0.000003
     8  H   -0.000000   0.000000  -0.000000   0.000000  -0.000000   0.000002
     9  C   -0.000003  -0.000000   0.000000  -0.000000  -0.000000   0.000036
    10  H    0.000000   0.000000  -0.000000   0.000000   0.000000   0.000002
    11  C    0.000000   0.000000  -0.000000  -0.000000  -0.000000  -0.000027
    12  H    0.000000  -0.000000   0.000000  -0.000000  -0.000000  -0.000007
    13  H   -0.000000   0.000000  -0.000000   0.000000  -0.000000   0.000002
    14  H    0.000001  -0.000000  -0.000000   0.000000   0.000000   0.000064
    15  C    0.350683  -0.065053  -0.001990  -0.001177   0.003789  -0.044156
    16  H   -0.043358  -0.002670   0.002769  -0.000486  -0.000029  -0.000024
    17  H   -0.043642  -0.002204  -0.000448   0.002752  -0.000055  -0.000377
    18  H   -0.037727   0.003758  -0.000068  -0.000032  -0.000115  -0.003150
    19  C    4.915064   0.353472  -0.043823  -0.044307  -0.041665   0.696285
    20  C    0.353472   4.900552   0.398175   0.398829   0.406165  -0.044228
    21  H   -0.043823   0.398175   0.594540  -0.037823  -0.026667  -0.000470
    22  H   -0.044307   0.398829  -0.037823   0.593696  -0.026546  -0.001279
    23  H   -0.041665   0.406165  -0.026667  -0.026546   0.565965  -0.002577
    24  C    0.696285  -0.044228  -0.000470  -0.001279  -0.002577   4.960934
    25  H   -0.038332  -0.006998   0.000180   0.000188   0.002368   0.403960
    26  C   -0.049354   0.003136  -0.000071  -0.000128   0.000144   0.340992
    27  H    0.001446  -0.000091  -0.000002   0.000009  -0.000009  -0.041006
    28  H    0.000417   0.000050  -0.000004   0.000006   0.000007  -0.044503
              25         26         27         28
     1  C   -0.000091   0.331128  -0.046717  -0.042601
     2  H    0.001049  -0.042384  -0.002896   0.004316
     3  H    0.000171  -0.045730   0.004692  -0.002340
     4  C   -0.000105  -0.055684  -0.001441  -0.002245
     5  C   -0.000002  -0.001011   0.000280  -0.000436
     6  H   -0.000000   0.000669  -0.000003  -0.000466
     7  H    0.000000   0.000075   0.000005   0.000058
     8  H    0.000000  -0.000108  -0.000004  -0.000040
     9  C    0.000007  -0.004455   0.001236   0.000648
    10  H   -0.000000  -0.000120  -0.000038   0.000001
    11  C   -0.000002   0.000509   0.000051  -0.000030
    12  H   -0.000000   0.000149  -0.000081  -0.000000
    13  H   -0.000000  -0.000037   0.000025  -0.000000
    14  H    0.000025  -0.000554   0.000016  -0.000004
    15  C    0.003541  -0.007949   0.000178  -0.002567
    16  H   -0.000122   0.000348  -0.000014  -0.000063
    17  H   -0.000120   0.000140   0.000024   0.000086
    18  H    0.000051  -0.002567   0.000062  -0.001998
    19  C   -0.038332  -0.049354   0.001446   0.000417
    20  C   -0.006998   0.003136  -0.000091   0.000050
    21  H    0.000180  -0.000071  -0.000002  -0.000004
    22  H    0.000188  -0.000128   0.000009   0.000006
    23  H    0.002368   0.000144  -0.000009   0.000007
    24  C    0.403960   0.340992  -0.041006  -0.044503
    25  H    0.558056  -0.040061  -0.003353   0.003267
    26  C   -0.040061   4.977839   0.413228   0.416251
    27  H   -0.003353   0.413228   0.579538  -0.028540
    28  H    0.003267   0.416251  -0.028540   0.582598
 Mulliken charges:
               1
     1  C   -0.235696
     2  H    0.121814
     3  H    0.118365
     4  C    0.017883
     5  C   -0.340845
     6  H    0.111985
     7  H    0.118157
     8  H    0.118112
     9  C   -0.153908
    10  H    0.115552
    11  C   -0.353585
    12  H    0.120163
    13  H    0.120250
    14  H    0.115581
    15  C   -0.348771
    16  H    0.119572
    17  H    0.120971
    18  H    0.118676
    19  C    0.027041
    20  C   -0.342746
    21  H    0.115688
    22  H    0.116299
    23  H    0.119226
    24  C   -0.163245
    25  H    0.116321
    26  C   -0.234395
    27  H    0.123405
    28  H    0.118132
 Sum of Mulliken charges =  -0.00000
 Mulliken charges with hydrogens summed into heavy atoms:
               1
     1  C    0.004483
     4  C    0.017883
     5  C    0.007409
     9  C   -0.038356
    11  C    0.002408
    15  C    0.010448
    19  C    0.027041
    20  C    0.008468
    24  C   -0.046924
    26  C    0.007142
 Electronic spatial extent (au):  <R**2>=           2498.6177
 Charge=             -0.0000 electrons
 Dipole moment (field-independent basis, Debye):
    X=             -0.3626    Y=              0.1699    Z=              0.0498  Tot=              0.4035
 Quadrupole moment (field-independent basis, Debye-Ang):
   XX=            -63.7582   YY=            -63.7112   ZZ=            -67.3994
   XY=             -1.0617   XZ=             -1.2177   YZ=             -0.3674
 Traceless Quadrupole moment (field-independent basis, Debye-Ang):
   XX=              1.1981   YY=              1.2451   ZZ=             -2.4431
   XY=             -1.0617   XZ=             -1.2177   YZ=             -0.3674
 Octapole moment (field-independent basis, Debye-Ang**2):
  XXX=             -2.8324  YYY=             -2.8562  ZZZ=              0.8775  XYY=              0.7382
  XXY=              1.7310  XXZ=             -2.8066  XZZ=             -1.5462  YZZ=              1.4376
  YYZ=              0.7861  XYZ=              0.4940
 Hexadecapole moment (field-independent basis, Debye-Ang**3):
 XXXX=          -2633.5357 YYYY=           -638.9542 ZZZZ=           -166.0439 XXXY=            -10.5034
 XXXZ=            -13.5605 YYYX=              7.0822 YYYZ=             -1.6738 ZZZX=             -4.0400
 ZZZY=              2.3776 XXYY=           -550.6722 XXZZ=           -483.2679 YYZZ=           -131.1157
 XXYZ=             -4.5757 YYXZ=             -2.5312 ZZXY=             -7.7339
 N-N= 5.156964585349D+02 E-N=-1.936106282909D+03  KE= 3.887456771703D+02
 No NMR shielding tensors so no spin-rotation constants.
 Leave Link  601 at Fri Sep 17 14:42:24 2021, MaxMem=   524288000 cpu:               0.2 elap:               0.2
 (Enter /opt/gaussian/g16_legacy/l9999.exe)
 1\1\GINC-TRUENO92\FOpt\RMP2-FC\6-31G(d,p)\C10H18\JRAMOS\17-Sep-2021\0\
 \#p opt mp2/6-31g(d,p)\\Conformer number 1348. Energy MM = 23.287 kcal
 /mol\\0,1\C,0.6987431767,-0.320034079,0.3899606073\H,0.7940061855,-1.4
 014606335,0.5019454397\H,0.0728706573,0.0197254445,1.21981816\C,2.0422
 012502,0.36081979,0.4631451551\C,2.0228470435,1.7658508996,1.001663091
 5\H,1.3306321972,2.393428125,0.4357160808\H,1.6857131829,1.7786854692,
 2.0404303636\H,3.0092058875,2.2257941719,0.9563538513\C,3.1891520362,-
 0.2009178921,0.0380245268\H,4.0972555839,0.390935463,0.1132678162\C,3.
 3628706227,-1.5726036563,-0.5397484077\H,3.7826457595,-1.5160644145,-1
 .5457422747\H,4.0563010584,-2.1641727113,0.0609496537\H,2.4239825041,-
 2.1175444925,-0.6038355058\C,-2.7661163711,1.3308647324,-0.3182356521\
 H,-3.2770048676,1.3941451806,0.64488728\H,-3.3987545324,1.8446384804,-
 1.0454823364\H,-1.8296948338,1.8767182458,-0.2364007537\C,-2.575488584
 3,-0.1085062904,-0.709035624\C,-3.8438632377,-0.9134173146,-0.77960099
 78\H,-4.3548368852,-0.9205153778,0.1858219694\H,-4.5390536716,-0.48025
 08507,-1.5023506027\H,-3.6478852273,-1.9443871663,-1.0701756741\C,-1.3
 840426482,-0.6708745003,-0.9863140999\H,-1.3774121389,-1.7289452988,-1
 .236400464\C,-0.0366048492,-0.0147597604,-0.9292526954\H,0.5805167391,
 -0.3729777927,-1.7573200866\H,-0.1182860373,1.0657262285,-1.0543888206
 \\Version=EM64L-G16RevA.03\State=1-A\HF=-389.1568792\MP2=-390.573553\R
 MSD=2.395e-09\RMSF=3.825e-06\Dipole=-0.1077837,0.0362887,0.0146426\PG=
 C01 [X(C10H18)]\\@


 TELEVISION IS CALLED A MEDIUM BECAUSE IT ISN'T
 RARE, AND IT ISN'T WELL DONE.
 Job cpu time:       0 days  1 hours  9 minutes 38.5 seconds.
 Elapsed time:       0 days  1 hours  9 minutes 46.6 seconds.
 File lengths (MBytes):  RWF=     32 Int=      0 D2E=      0 Chk=      7 Scr=      1
 Normal termination of Gaussian 16 at Fri Sep 17 14:42:25 2021.
