 Entering Gaussian System, Link 0=/opt/gaussian/g16_legacy/g16
 Input=01-IsoP_2636_gaussian.com
 Output=01-IsoP_2636_gaussian.log
 Initial command:
 /opt/gaussian/g16_legacy/l1.exe "/scratch-local/jramos/2661362/Gau-11630.inp" -scrdir="/scratch-local/jramos/2661362/"
 Entering Link 1 = /opt/gaussian/g16_legacy/l1.exe PID=     11631.
  
 Copyright (c) 1988,1990,1992,1993,1995,1998,2003,2009,2016,
            Gaussian, Inc.  All Rights Reserved.
  
 This is part of the Gaussian(R) 16 program.  It is based on
 the Gaussian(R) 09 system (copyright 2009, Gaussian, Inc.),
 the Gaussian(R) 03 system (copyright 2003, Gaussian, Inc.),
 the Gaussian(R) 98 system (copyright 1998, Gaussian, Inc.),
 the Gaussian(R) 94 system (copyright 1995, Gaussian, Inc.),
 the Gaussian 92(TM) system (copyright 1992, Gaussian, Inc.),
 the Gaussian 90(TM) system (copyright 1990, Gaussian, Inc.),
 the Gaussian 88(TM) system (copyright 1988, Gaussian, Inc.),
 the Gaussian 86(TM) system (copyright 1986, Carnegie Mellon
 University), and the Gaussian 82(TM) system (copyright 1983,
 Carnegie Mellon University). Gaussian is a federally registered
 trademark of Gaussian, Inc.
  
 This software contains proprietary and confidential information,
 including trade secrets, belonging to Gaussian, Inc.
  
 This software is provided under written license and may be
 used, copied, transmitted, or stored only in accord with that
 written license.
  
 The following legend is applicable only to US Government
 contracts under FAR:
  
                    RESTRICTED RIGHTS LEGEND
  
 Use, reproduction and disclosure by the US Government is
 subject to restrictions as set forth in subparagraphs (a)
 and (c) of the Commercial Computer Software - Restricted
 Rights clause in FAR 52.227-19.
  
 Gaussian, Inc.
 340 Quinnipiac St., Bldg. 40, Wallingford CT 06492
  
  
 ---------------------------------------------------------------
 Warning -- This program may not be used in any manner that
 competes with the business of Gaussian, Inc. or will provide
 assistance to any competitor of Gaussian, Inc.  The licensee
 of this program is prohibited from giving any competitor of
 Gaussian, Inc. access to this program.  By using this program,
 the user acknowledges that Gaussian, Inc. is engaged in the
 business of creating and licensing software in the field of
 computational chemistry and represents and warrants to the
 licensee that it is not a competitor of Gaussian, Inc. and that
 it will not use this program in any manner prohibited above.
 ---------------------------------------------------------------
  

 Cite this work as:
 Gaussian 16, Revision A.03,
 M. J. Frisch, G. W. Trucks, H. B. Schlegel, G. E. Scuseria, 
 M. A. Robb, J. R. Cheeseman, G. Scalmani, V. Barone, 
 G. A. Petersson, H. Nakatsuji, X. Li, M. Caricato, A. V. Marenich, 
 J. Bloino, B. G. Janesko, R. Gomperts, B. Mennucci, H. P. Hratchian, 
 J. V. Ortiz, A. F. Izmaylov, J. L. Sonnenberg, D. Williams-Young, 
 F. Ding, F. Lipparini, F. Egidi, J. Goings, B. Peng, A. Petrone, 
 T. Henderson, D. Ranasinghe, V. G. Zakrzewski, J. Gao, N. Rega, 
 G. Zheng, W. Liang, M. Hada, M. Ehara, K. Toyota, R. Fukuda, 
 J. Hasegawa, M. Ishida, T. Nakajima, Y. Honda, O. Kitao, H. Nakai, 
 T. Vreven, K. Throssell, J. A. Montgomery, Jr., J. E. Peralta, 
 F. Ogliaro, M. J. Bearpark, J. J. Heyd, E. N. Brothers, K. N. Kudin, 
 V. N. Staroverov, T. A. Keith, R. Kobayashi, J. Normand, 
 K. Raghavachari, A. P. Rendell, J. C. Burant, S. S. Iyengar, 
 J. Tomasi, M. Cossi, J. M. Millam, M. Klene, C. Adamo, R. Cammi, 
 J. W. Ochterski, R. L. Martin, K. Morokuma, O. Farkas, 
 J. B. Foresman, and D. J. Fox, Gaussian, Inc., Wallingford CT, 2016.
 
 ******************************************
 Gaussian 16:  EM64L-G16RevA.03 25-Dec-2016
                17-Sep-2021 
 ******************************************
 %chk=01-IsoP_2636_gaussian.chk
 %nproc=1
 Will use up to    1 processors via shared memory.
 %mem=4000Mb
 ---------------------
 #p opt mp2/6-31g(d,p)
 ---------------------
 1/18=20,19=15,38=1/1,3;
 2/9=110,12=2,17=6,18=5,40=1/2;
 3/5=1,6=6,7=101,11=9,25=1,30=1,71=1/1,2,3;
 4//1;
 5/5=2,38=5/2;
 8/6=4,10=2/1;
 9/15=2,16=-3/6;
 10/5=1/2;
 6/7=2,8=2,9=2,10=2/1;
 7/12=2/1,2,3,16;
 1/18=20,19=15/3(2);
 2/9=110/2;
 99//99;
 2/9=110/2;
 3/5=1,6=6,7=101,11=9,25=1,30=1,71=1/1,2,3;
 4/5=5,16=3,69=1/1;
 5/5=2,38=5/2;
 8/6=4,10=2/1;
 9/15=2,16=-3/6;
 10/5=1/2;
 7/12=2/1,2,3,16;
 1/18=20,19=15/3(-8);
 2/9=110/2;
 6/7=2,8=2,9=2,10=2/1;
 99//99;
 Leave Link    1 at Fri Sep 17 14:22:14 2021, MaxMem=   524288000 cpu:               0.0 elap:               0.1
 (Enter /opt/gaussian/g16_legacy/l101.exe)
 --------------------------------------------------
 Conformer number 2636. Energy MM = 23.242 kcal/mol
 --------------------------------------------------
 Symbolic Z-matrix:
 Charge =  0 Multiplicity = 1
 C                    -0.7399   -0.2012    0.9277 
 H                    -0.6013   -0.1858    2.0172 
 H                    -0.8483    0.8523    0.6434 
 C                    -2.0016   -0.9735    0.6015 
 C                    -2.2684   -2.1639    1.4866 
 H                    -3.195    -2.6818    1.2171 
 H                    -2.358    -1.8478    2.531 
 H                    -1.4514   -2.8883    1.4105 
 C                    -2.863    -0.6436   -0.3811 
 H                    -3.7554   -1.2537   -0.5188 
 C                    -2.7403    0.4811   -1.36 
 H                    -2.8603    0.0936   -2.377 
 H                    -3.5296    1.2173   -1.1809 
 H                    -1.7756    0.9915   -1.3187 
 C                     1.9773    1.2817   -1.5595 
 H                     2.7085    0.9398   -2.2992 
 H                     1.9165    2.374    -1.6147 
 H                     0.9977    0.8962   -1.8508 
 C                     2.4008    0.8578   -0.1801 
 C                     3.6598    1.5221    0.3131 
 H                     4.4943    1.2974   -0.3593 
 H                     3.5259    2.6081    0.3519 
 H                     3.942     1.1859    1.3164 
 C                     1.7412   -0.0254    0.5947 
 H                     2.1354   -0.2403    1.5881 
 C                     0.4969   -0.7999    0.2503 
 H                     0.3471   -0.8586   -0.8327 
 H                     0.6443   -1.8351    0.5832 
 
 ITRead=  0  0  0  0  0  0  0  0  0  0  0  0  0  0  0  0  0  0  0  0
 ITRead=  0  0  0  0  0  0  0  0
 MicOpt= -1 -1 -1 -1 -1 -1 -1 -1 -1 -1 -1 -1 -1 -1 -1 -1 -1 -1 -1 -1
 MicOpt= -1 -1 -1 -1 -1 -1 -1 -1
 NAtoms=     28 NQM=       28 NQMF=       0 NMMI=      0 NMMIF=      0
                NMic=       0 NMicF=      0.
                    Isotopes and Nuclear Properties:
 (Nuclear quadrupole moments (NQMom) in fm**2, nuclear magnetic moments (NMagM)
  in nuclear magnetons)

  Atom         1           2           3           4           5           6           7           8           9          10
 IAtWgt=          12           1           1          12          12           1           1           1          12           1
 AtmWgt=  12.0000000   1.0078250   1.0078250  12.0000000  12.0000000   1.0078250   1.0078250   1.0078250  12.0000000   1.0078250
 NucSpn=           0           1           1           0           0           1           1           1           0           1
 AtZEff=  -0.0000000  -0.0000000  -0.0000000  -0.0000000  -0.0000000  -0.0000000  -0.0000000  -0.0000000  -0.0000000  -0.0000000
 NQMom=    0.0000000   0.0000000   0.0000000   0.0000000   0.0000000   0.0000000   0.0000000   0.0000000   0.0000000   0.0000000
 NMagM=    0.0000000   2.7928460   2.7928460   0.0000000   0.0000000   2.7928460   2.7928460   2.7928460   0.0000000   2.7928460
 AtZNuc=   6.0000000   1.0000000   1.0000000   6.0000000   6.0000000   1.0000000   1.0000000   1.0000000   6.0000000   1.0000000

  Atom        11          12          13          14          15          16          17          18          19          20
 IAtWgt=          12           1           1           1          12           1           1           1          12          12
 AtmWgt=  12.0000000   1.0078250   1.0078250   1.0078250  12.0000000   1.0078250   1.0078250   1.0078250  12.0000000  12.0000000
 NucSpn=           0           1           1           1           0           1           1           1           0           0
 AtZEff=  -0.0000000  -0.0000000  -0.0000000  -0.0000000  -0.0000000  -0.0000000  -0.0000000  -0.0000000  -0.0000000  -0.0000000
 NQMom=    0.0000000   0.0000000   0.0000000   0.0000000   0.0000000   0.0000000   0.0000000   0.0000000   0.0000000   0.0000000
 NMagM=    0.0000000   2.7928460   2.7928460   2.7928460   0.0000000   2.7928460   2.7928460   2.7928460   0.0000000   0.0000000
 AtZNuc=   6.0000000   1.0000000   1.0000000   1.0000000   6.0000000   1.0000000   1.0000000   1.0000000   6.0000000   6.0000000

  Atom        21          22          23          24          25          26          27          28
 IAtWgt=           1           1           1          12           1          12           1           1
 AtmWgt=   1.0078250   1.0078250   1.0078250  12.0000000   1.0078250  12.0000000   1.0078250   1.0078250
 NucSpn=           1           1           1           0           1           0           1           1
 AtZEff=  -0.0000000  -0.0000000  -0.0000000  -0.0000000  -0.0000000  -0.0000000  -0.0000000  -0.0000000
 NQMom=    0.0000000   0.0000000   0.0000000   0.0000000   0.0000000   0.0000000   0.0000000   0.0000000
 NMagM=    2.7928460   2.7928460   2.7928460   0.0000000   2.7928460   0.0000000   2.7928460   2.7928460
 AtZNuc=   1.0000000   1.0000000   1.0000000   6.0000000   1.0000000   6.0000000   1.0000000   1.0000000
 Leave Link  101 at Fri Sep 17 14:22:15 2021, MaxMem=   524288000 cpu:               0.1 elap:               0.1
 (Enter /opt/gaussian/g16_legacy/l103.exe)

 GradGradGradGradGradGradGradGradGradGradGradGradGradGradGradGradGradGrad
 Berny optimization.
 Initialization pass.
                           ----------------------------
                           !    Initial Parameters    !
                           ! (Angstroms and Degrees)  !
 --------------------------                            --------------------------
 ! Name  Definition              Value          Derivative Info.                !
 --------------------------------------------------------------------------------
 ! R1    R(1,2)                  1.0984         estimate D2E/DX2                !
 ! R2    R(1,3)                  1.0966         estimate D2E/DX2                !
 ! R3    R(1,4)                  1.5148         estimate D2E/DX2                !
 ! R4    R(1,26)                 1.532          estimate D2E/DX2                !
 ! R5    R(4,5)                  1.5072         estimate D2E/DX2                !
 ! R6    R(4,9)                  1.3477         estimate D2E/DX2                !
 ! R7    R(5,6)                  1.0952         estimate D2E/DX2                !
 ! R8    R(5,7)                  1.0949         estimate D2E/DX2                !
 ! R9    R(5,8)                  1.0945         estimate D2E/DX2                !
 ! R10   R(9,10)                 1.0898         estimate D2E/DX2                !
 ! R11   R(9,11)                 1.4961         estimate D2E/DX2                !
 ! R12   R(11,12)                1.0949         estimate D2E/DX2                !
 ! R13   R(11,13)                1.0941         estimate D2E/DX2                !
 ! R14   R(11,14)                1.0922         estimate D2E/DX2                !
 ! R15   R(15,16)                1.0949         estimate D2E/DX2                !
 ! R16   R(15,17)                1.0954         estimate D2E/DX2                !
 ! R17   R(15,18)                1.0923         estimate D2E/DX2                !
 ! R18   R(15,19)                1.5039         estimate D2E/DX2                !
 ! R19   R(19,20)                1.5065         estimate D2E/DX2                !
 ! R20   R(19,24)                1.3474         estimate D2E/DX2                !
 ! R21   R(20,21)                1.095          estimate D2E/DX2                !
 ! R22   R(20,22)                1.0949         estimate D2E/DX2                !
 ! R23   R(20,23)                1.0951         estimate D2E/DX2                !
 ! R24   R(24,25)                1.0901         estimate D2E/DX2                !
 ! R25   R(24,26)                1.5056         estimate D2E/DX2                !
 ! R26   R(26,27)                1.0949         estimate D2E/DX2                !
 ! R27   R(26,28)                1.0974         estimate D2E/DX2                !
 ! A1    A(2,1,3)              104.843          estimate D2E/DX2                !
 ! A2    A(2,1,4)              109.0165         estimate D2E/DX2                !
 ! A3    A(2,1,26)             110.011          estimate D2E/DX2                !
 ! A4    A(3,1,4)              110.5876         estimate D2E/DX2                !
 ! A5    A(3,1,26)             109.9147         estimate D2E/DX2                !
 ! A6    A(4,1,26)             112.2071         estimate D2E/DX2                !
 ! A7    A(1,4,5)              115.0649         estimate D2E/DX2                !
 ! A8    A(1,4,9)              124.371          estimate D2E/DX2                !
 ! A9    A(5,4,9)              120.5537         estimate D2E/DX2                !
 ! A10   A(4,5,6)              112.2564         estimate D2E/DX2                !
 ! A11   A(4,5,7)              110.2821         estimate D2E/DX2                !
 ! A12   A(4,5,8)              110.4725         estimate D2E/DX2                !
 ! A13   A(6,5,7)              107.5792         estimate D2E/DX2                !
 ! A14   A(6,5,8)              107.5446         estimate D2E/DX2                !
 ! A15   A(7,5,8)              108.5713         estimate D2E/DX2                !
 ! A16   A(4,9,10)             118.5867         estimate D2E/DX2                !
 ! A17   A(4,9,11)             127.4918         estimate D2E/DX2                !
 ! A18   A(10,9,11)            113.9137         estimate D2E/DX2                !
 ! A19   A(9,11,12)            109.433          estimate D2E/DX2                !
 ! A20   A(9,11,13)            109.8509         estimate D2E/DX2                !
 ! A21   A(9,11,14)            113.5167         estimate D2E/DX2                !
 ! A22   A(12,11,13)           108.1267         estimate D2E/DX2                !
 ! A23   A(12,11,14)           107.2965         estimate D2E/DX2                !
 ! A24   A(13,11,14)           108.4554         estimate D2E/DX2                !
 ! A25   A(16,15,17)           108.326          estimate D2E/DX2                !
 ! A26   A(16,15,18)           107.9726         estimate D2E/DX2                !
 ! A27   A(16,15,19)           110.0958         estimate D2E/DX2                !
 ! A28   A(17,15,18)           106.7812         estimate D2E/DX2                !
 ! A29   A(17,15,19)           110.0549         estimate D2E/DX2                !
 ! A30   A(18,15,19)           113.433          estimate D2E/DX2                !
 ! A31   A(15,19,20)           114.2873         estimate D2E/DX2                !
 ! A32   A(15,19,24)           125.0531         estimate D2E/DX2                !
 ! A33   A(20,19,24)           120.6568         estimate D2E/DX2                !
 ! A34   A(19,20,21)           110.2046         estimate D2E/DX2                !
 ! A35   A(19,20,22)           110.2893         estimate D2E/DX2                !
 ! A36   A(19,20,23)           112.328          estimate D2E/DX2                !
 ! A37   A(21,20,22)           108.5721         estimate D2E/DX2                !
 ! A38   A(21,20,23)           107.6499         estimate D2E/DX2                !
 ! A39   A(22,20,23)           107.6709         estimate D2E/DX2                !
 ! A40   A(19,24,25)           118.438          estimate D2E/DX2                !
 ! A41   A(19,24,26)           127.6076         estimate D2E/DX2                !
 ! A42   A(25,24,26)           113.9471         estimate D2E/DX2                !
 ! A43   A(1,26,24)            111.4098         estimate D2E/DX2                !
 ! A44   A(1,26,27)            110.3569         estimate D2E/DX2                !
 ! A45   A(1,26,28)            110.0577         estimate D2E/DX2                !
 ! A46   A(24,26,27)           111.5259         estimate D2E/DX2                !
 ! A47   A(24,26,28)           107.7508         estimate D2E/DX2                !
 ! A48   A(27,26,28)           105.5378         estimate D2E/DX2                !
 ! D1    D(2,1,4,5)            -36.6448         estimate D2E/DX2                !
 ! D2    D(2,1,4,9)            142.1821         estimate D2E/DX2                !
 ! D3    D(3,1,4,5)           -151.4103         estimate D2E/DX2                !
 ! D4    D(3,1,4,9)             27.4166         estimate D2E/DX2                !
 ! D5    D(26,1,4,5)            85.4723         estimate D2E/DX2                !
 ! D6    D(26,1,4,9)           -95.7008         estimate D2E/DX2                !
 ! D7    D(2,1,26,24)          -58.0195         estimate D2E/DX2                !
 ! D8    D(2,1,26,27)          177.5188         estimate D2E/DX2                !
 ! D9    D(2,1,26,28)           61.438          estimate D2E/DX2                !
 ! D10   D(3,1,26,24)           56.9359         estimate D2E/DX2                !
 ! D11   D(3,1,26,27)          -67.5259         estimate D2E/DX2                !
 ! D12   D(3,1,26,28)          176.3933         estimate D2E/DX2                !
 ! D13   D(4,1,26,24)         -179.5689         estimate D2E/DX2                !
 ! D14   D(4,1,26,27)           55.9694         estimate D2E/DX2                !
 ! D15   D(4,1,26,28)          -60.1115         estimate D2E/DX2                !
 ! D16   D(1,4,5,6)            179.4389         estimate D2E/DX2                !
 ! D17   D(1,4,5,7)             59.4954         estimate D2E/DX2                !
 ! D18   D(1,4,5,8)            -60.5308         estimate D2E/DX2                !
 ! D19   D(9,4,5,6)              0.5633         estimate D2E/DX2                !
 ! D20   D(9,4,5,7)           -119.3802         estimate D2E/DX2                !
 ! D21   D(9,4,5,8)            120.5936         estimate D2E/DX2                !
 ! D22   D(1,4,9,10)          -178.6005         estimate D2E/DX2                !
 ! D23   D(1,4,9,11)             2.4835         estimate D2E/DX2                !
 ! D24   D(5,4,9,10)             0.1655         estimate D2E/DX2                !
 ! D25   D(5,4,9,11)          -178.7505         estimate D2E/DX2                !
 ! D26   D(4,9,11,12)          127.7533         estimate D2E/DX2                !
 ! D27   D(4,9,11,13)         -113.6836         estimate D2E/DX2                !
 ! D28   D(4,9,11,14)            7.9278         estimate D2E/DX2                !
 ! D29   D(10,9,11,12)         -51.2055         estimate D2E/DX2                !
 ! D30   D(10,9,11,13)          67.3576         estimate D2E/DX2                !
 ! D31   D(10,9,11,14)        -171.031          estimate D2E/DX2                !
 ! D32   D(16,15,19,20)         66.5558         estimate D2E/DX2                !
 ! D33   D(16,15,19,24)       -114.0591         estimate D2E/DX2                !
 ! D34   D(17,15,19,20)        -52.7834         estimate D2E/DX2                !
 ! D35   D(17,15,19,24)        126.6017         estimate D2E/DX2                !
 ! D36   D(18,15,19,20)       -172.3349         estimate D2E/DX2                !
 ! D37   D(18,15,19,24)          7.0502         estimate D2E/DX2                !
 ! D38   D(15,19,20,21)        -59.6023         estimate D2E/DX2                !
 ! D39   D(15,19,20,22)         60.2581         estimate D2E/DX2                !
 ! D40   D(15,19,20,23)       -179.6297         estimate D2E/DX2                !
 ! D41   D(24,19,20,21)        120.9828         estimate D2E/DX2                !
 ! D42   D(24,19,20,22)       -119.1567         estimate D2E/DX2                !
 ! D43   D(24,19,20,23)          0.9555         estimate D2E/DX2                !
 ! D44   D(15,19,24,25)       -178.8287         estimate D2E/DX2                !
 ! D45   D(15,19,24,26)          2.2214         estimate D2E/DX2                !
 ! D46   D(20,19,24,25)          0.5198         estimate D2E/DX2                !
 ! D47   D(20,19,24,26)       -178.4301         estimate D2E/DX2                !
 ! D48   D(19,24,26,1)        -103.3704         estimate D2E/DX2                !
 ! D49   D(19,24,26,27)         20.4313         estimate D2E/DX2                !
 ! D50   D(19,24,26,28)        135.8112         estimate D2E/DX2                !
 ! D51   D(25,24,26,1)          77.64           estimate D2E/DX2                !
 ! D52   D(25,24,26,27)       -158.5583         estimate D2E/DX2                !
 ! D53   D(25,24,26,28)        -43.1784         estimate D2E/DX2                !
 --------------------------------------------------------------------------------
 Trust Radius=3.00D-01 FncErr=1.00D-07 GrdErr=1.00D-07 EigMax=2.50D+02 EigMin=1.00D-04
 Number of steps in this run=    138 maximum allowed number of steps=    168.
 GradGradGradGradGradGradGradGradGradGradGradGradGradGradGradGradGradGrad

 Leave Link  103 at Fri Sep 17 14:22:15 2021, MaxMem=   524288000 cpu:               0.0 elap:               0.1
 (Enter /opt/gaussian/g16_legacy/l202.exe)
                          Input orientation:                          
 ---------------------------------------------------------------------
 Center     Atomic      Atomic             Coordinates (Angstroms)
 Number     Number       Type             X           Y           Z
 ---------------------------------------------------------------------
      1          6           0       -0.739900   -0.201200    0.927700
      2          1           0       -0.601300   -0.185800    2.017200
      3          1           0       -0.848300    0.852300    0.643400
      4          6           0       -2.001600   -0.973500    0.601500
      5          6           0       -2.268400   -2.163900    1.486600
      6          1           0       -3.195000   -2.681800    1.217100
      7          1           0       -2.358000   -1.847800    2.531000
      8          1           0       -1.451400   -2.888300    1.410500
      9          6           0       -2.863000   -0.643600   -0.381100
     10          1           0       -3.755400   -1.253700   -0.518800
     11          6           0       -2.740300    0.481100   -1.360000
     12          1           0       -2.860300    0.093600   -2.377000
     13          1           0       -3.529600    1.217300   -1.180900
     14          1           0       -1.775600    0.991500   -1.318700
     15          6           0        1.977300    1.281700   -1.559500
     16          1           0        2.708500    0.939800   -2.299200
     17          1           0        1.916500    2.374000   -1.614700
     18          1           0        0.997700    0.896200   -1.850800
     19          6           0        2.400800    0.857800   -0.180100
     20          6           0        3.659800    1.522100    0.313100
     21          1           0        4.494300    1.297400   -0.359300
     22          1           0        3.525900    2.608100    0.351900
     23          1           0        3.942000    1.185900    1.316400
     24          6           0        1.741200   -0.025400    0.594700
     25          1           0        2.135400   -0.240300    1.588100
     26          6           0        0.496900   -0.799900    0.250300
     27          1           0        0.347100   -0.858600   -0.832700
     28          1           0        0.644300   -1.835100    0.583200
 ---------------------------------------------------------------------
                    Distance matrix (angstroms):
                    1          2          3          4          5
     1  C    0.000000
     2  H    1.098389   0.000000
     3  H    1.096558   1.739536   0.000000
     4  C    1.514840   2.141382   2.159954   0.000000
     5  C    2.549681   2.640765   3.438769   1.507195   0.000000
     6  H    3.502091   3.687473   4.280887   2.172891   1.095189
     7  H    2.810713   2.472292   3.623916   2.148114   1.094860
     8  H    2.821318   2.897285   3.865781   2.150270   1.094548
     9  C    2.533028   3.328169   2.710412   1.347719   2.480557
    10  H    3.506189   4.185696   3.773218   2.099857   2.657304
    11  C    3.114595   4.052845   2.780479   2.551278   3.914313
    12  H    3.937518   4.948751   3.707639   3.278343   4.513763
    13  H    3.773693   4.557573   3.263536   3.211127   4.487616
    14  H    2.746183   3.727364   2.174649   2.756713   4.250777
    15  C    3.970936   4.647098   3.608486   5.058408   6.259142
    16  H    4.858624   5.554553   4.617075   5.853189   6.981029
    17  H    4.489088   5.107112   3.880555   5.609706   6.908255
    18  H    3.455952   4.323072   3.103333   4.301785   5.582997
    19  C    3.494667   3.863914   3.351840   4.831737   5.806030
    20  C    4.764961   4.896719   4.569540   6.193758   7.078648
    21  H    5.594553   5.814875   5.454072   6.948154   7.818060
    22  H    5.140113   5.254796   4.722439   6.591162   7.591669
    23  H    4.898502   4.797318   4.848834   6.363998   7.058271
    24  C    2.509512   2.745276   2.734637   3.861022   4.630935
    25  H    2.950425   2.770672   3.314921   4.315754   4.806661
    26  C    1.531988   2.169124   2.166531   2.529028   3.322020
    27  H    2.170887   3.077995   2.556371   2.754364   3.731461
    28  H    2.168944   2.515565   3.074670   2.782710   3.067256
                    6          7          8          9         10
     6  H    0.000000
     7  H    1.767048   0.000000
     8  H    1.766405   1.777663   0.000000
     9  C    2.611269   3.191465   3.200175   0.000000
    10  H    2.316650   3.406899   3.420896   1.089753   0.000000
    11  C    4.105135   4.550803   4.548603   1.496078   2.178893
    12  H    4.553287   5.301868   5.022139   2.127695   2.463601
    13  H    4.589700   4.954360   5.281119   2.132366   2.568113
    14  H    4.683814   4.818818   4.754628   2.176025   3.098447
    15  C    7.083186   6.732071   6.161638   5.340778   6.354145
    16  H    7.767346   7.534651   6.761730   6.101465   7.054309
    17  H    7.727072   7.299437   6.941642   5.785439   6.821411
    18  H    6.308156   6.163638   5.563866   4.408629   5.384074
    19  C    6.767120   6.108724   5.603813   5.477426   6.517051
    20  C    8.091865   7.244945   6.839611   6.907901   7.961301
    21  H    8.800250   8.074660   7.483557   7.609062   8.636614
    22  H    8.596634   7.695700   7.490298   7.206170   8.287880
    23  H    8.118235   7.097083   6.759935   7.248214   8.280675
    24  C    5.640028   4.886086   4.365137   4.746895   5.741186
    25  H    5.874668   4.864541   4.461903   5.387430   6.337786
    26  C    4.255159   3.801334   3.082751   3.422283   4.345055
    27  H    4.480202   4.428381   3.519408   3.248832   4.133418
    28  H    3.982330   3.578811   2.487089   3.827623   4.572722
                   11         12         13         14         15
    11  C    0.000000
    12  H    1.094918   0.000000
    13  H    1.094103   1.772377   0.000000
    14  H    1.092181   1.761476   1.773835   0.000000
    15  C    4.789208   5.047996   5.520275   3.771798   0.000000
    16  H    5.548146   5.633262   6.343618   4.590338   1.094854
    17  H    5.033262   5.347817   5.584455   3.953546   1.095383
    18  H    3.792867   3.975578   4.587844   2.825492   1.092283
    19  C    5.288192   5.752351   6.024988   4.330889   1.503924
    20  C    6.696583   7.196454   7.349314   5.699814   2.528879
    21  H    7.348958   7.720776   8.066252   6.350250   2.788551
    22  H    6.835202   7.386011   7.352814   5.788800   2.794807
    23  H    7.232772   7.817008   7.877963   6.298610   3.484254
    24  C    4.915408   5.478956   5.698982   4.130747   2.530777
    25  H    5.743184   6.386746   6.471799   5.026205   3.499838
    26  C    3.835817   4.355668   4.725477   3.291676   3.130498
    27  H    3.406594   3.684964   4.411282   2.857433   2.786875
    28  H    4.538318   4.976433   5.463574   4.178852   4.010299
                   16         17         18         19         20
    16  H    0.000000
    17  H    1.775594   0.000000
    18  H    1.769124   1.756084   0.000000
    19  C    2.142892   2.142775   2.182064   0.000000
    20  C    2.840450   2.735186   3.487261   1.506526   0.000000
    21  H    2.660859   3.062703   3.822531   2.146649   1.094990
    22  H    3.237236   2.551957   3.764875   2.147655   1.094911
    23  H    3.828139   3.755739   4.334049   2.173122   1.095116
    24  C    3.200303   3.266389   2.717096   1.347379   2.480944
    25  H    4.102704   4.140098   3.796318   2.098283   2.656214
    26  C    3.797062   3.945520   2.746302   2.560869   3.924228
    27  H    3.310751   3.677532   2.130524   2.754923   4.237283
    28  H    4.502135   4.915870   3.675493   3.304486   4.520728
                   21         22         23         24         25
    21  H    0.000000
    22  H    1.778072   0.000000
    23  H    1.767891   1.768065   0.000000
    24  C    3.199918   3.190522   2.613737   0.000000
    25  H    3.423638   3.402214   2.317687   1.090146   0.000000
    26  C    4.555160   4.560661   4.116878   1.505571   2.188046
    27  H    4.698054   4.850367   4.660678   2.162223   3.072553
    28  H    5.052065   5.300863   4.531981   2.116208   2.403454
                   26         27         28
    26  C    0.000000
    27  H    1.094886   0.000000
    28  H    1.097355   1.745466   0.000000
 Stoichiometry    C10H18
 Framework group  C1[X(C10H18)]
 Deg. of freedom    78
 Full point group                 C1      NOp   1
 Largest Abelian subgroup         C1      NOp   1
 Largest concise Abelian subgroup C1      NOp   1
                         Standard orientation:                         
 ---------------------------------------------------------------------
 Center     Atomic      Atomic             Coordinates (Angstroms)
 Number     Number       Type             X           Y           Z
 ---------------------------------------------------------------------
      1          6           0       -0.793810   -0.586504    0.589161
      2          1           0       -0.745976   -1.484360    1.220052
      3          1           0       -0.484642    0.235236    1.246122
      4          6           0       -2.220941   -0.386930    0.122033
      5          6           0       -2.975667   -1.655004   -0.184583
      6          1           0       -4.003281   -1.458176   -0.508166
      7          1           0       -3.025235   -2.291638    0.704775
      8          1           0       -2.478736   -2.212258   -0.984936
      9          6           0       -2.820152    0.813904   -0.001623
     10          1           0       -3.860389    0.846774   -0.324715
     11          6           0       -2.215673    2.161849    0.234808
     12          1           0       -2.388739    2.797210   -0.639955
     13          1           0       -2.690754    2.635672    1.099014
     14          1           0       -1.137441    2.131946    0.406216
     15          6           0        2.465946    1.425903   -0.456086
     16          1           0        3.076459    1.626084   -1.342599
     17          1           0        2.815342    2.072734    0.355946
     18          1           0        1.439595    1.725969   -0.678899
     19          6           0        2.593413   -0.018279   -0.056239
     20          6           0        3.965135   -0.407946    0.429725
     21          1           0        4.709109   -0.227471   -0.353175
     22          1           0        4.237034    0.181203    1.311658
     23          1           0        4.023667   -1.466067    0.705827
     24          6           0        1.596306   -0.923548   -0.097424
     25          1           0        1.803980   -1.940168    0.236902
     26          6           0        0.185932   -0.715551   -0.581497
     27          1           0        0.111294    0.157052   -1.238587
     28          1           0       -0.084220   -1.577107   -1.205137
 ---------------------------------------------------------------------
 Rotational constants (GHZ):           2.2181525           0.5802338           0.4854279
 Leave Link  202 at Fri Sep 17 14:22:15 2021, MaxMem=   524288000 cpu:               0.0 elap:               0.1
 (Enter /opt/gaussian/g16_legacy/l301.exe)
 Standard basis: 6-31G(d,p) (6D, 7F)
 Ernie: Thresh=  0.10000D-02 Tol=  0.10000D-05 Strict=F.
 There are   240 symmetry adapted cartesian basis functions of A   symmetry.
 There are   240 symmetry adapted basis functions of A   symmetry.
   240 basis functions,   406 primitive gaussians,   240 cartesian basis functions
    39 alpha electrons       39 beta electrons
       nuclear repulsion energy       516.4373357232 Hartrees.
 IExCor=    0 DFT=F Ex=HF Corr=None ExCW=0 ScaHFX=  1.000000
 ScaDFX=  1.000000  1.000000  1.000000  1.000000 ScalE2=  1.000000  1.000000
 IRadAn=      5 IRanWt=     -1 IRanGd=            0 ICorTp=0 IEmpDi=  4
 NAtoms=   28 NActive=   28 NUniq=   28 SFac= 1.00D+00 NAtFMM=   60 NAOKFM=F Big=F
 Integral buffers will be    131072 words long.
 Raffenetti 1 integral format.
 Two-electron integral symmetry is turned on.
 Leave Link  301 at Fri Sep 17 14:22:15 2021, MaxMem=   524288000 cpu:               0.0 elap:               0.1
 (Enter /opt/gaussian/g16_legacy/l302.exe)
 NPDir=0 NMtPBC=     1 NCelOv=     1 NCel=       1 NClECP=     1 NCelD=      1
         NCelK=      1 NCelE2=     1 NClLst=     1 CellRange=     0.0.
 One-electron integrals computed using PRISM.
 One-electron integral symmetry used in STVInt
 NBasis=   240 RedAO= T EigKep=  2.10D-03  NBF=   240
 NBsUse=   240 1.00D-06 EigRej= -1.00D+00 NBFU=   240
 Leave Link  302 at Fri Sep 17 14:22:16 2021, MaxMem=   524288000 cpu:               0.1 elap:               0.4
 (Enter /opt/gaussian/g16_legacy/l303.exe)
 DipDrv:  MaxL=1.
 Leave Link  303 at Fri Sep 17 14:22:16 2021, MaxMem=   524288000 cpu:               0.0 elap:               0.1
 (Enter /opt/gaussian/g16_legacy/l401.exe)
 ExpMin= 1.61D-01 ExpMax= 3.05D+03 ExpMxC= 4.57D+02 IAcc=3 IRadAn=         5 AccDes= 0.00D+00
 Harris functional with IExCor=  205 and IRadAn=       5 diagonalized for initial guess.
 HarFok:  IExCor=  205 AccDes= 0.00D+00 IRadAn=         5 IDoV= 1 UseB2=F ITyADJ=14
 ICtDFT=  3500011 ScaDFX=  1.000000  1.000000  1.000000  1.000000
 FoFCou: FMM=F IPFlag=           0 FMFlag=      100000 FMFlg1=           0
         NFxFlg=           0 DoJE=T BraDBF=F KetDBF=T FulRan=T
         wScrn=  0.000000 ICntrl=       500 IOpCl=  0 I1Cent=   200000004 NGrid=           0
         NMat0=    1 NMatS0=      1 NMatT0=    0 NMatD0=    1 NMtDS0=    0 NMtDT0=    0
 Petite list used in FoFCou.
 Harris En= -390.109906712354    
 JPrj=0 DoOrth=F DoCkMO=F.
 Leave Link  401 at Fri Sep 17 14:22:23 2021, MaxMem=   524288000 cpu:               6.5 elap:               7.1
 (Enter /opt/gaussian/g16_legacy/l502.exe)
 Keep R1 ints in memory in canonical form, NReq=425198025.
 FoFCou: FMM=F IPFlag=           0 FMFlag=           0 FMFlg1=           0
         NFxFlg=           0 DoJE=F BraDBF=F KetDBF=F FulRan=T
         wScrn=  0.000000 ICntrl=       600 IOpCl=  0 I1Cent=           0 NGrid=           0
         NMat0=    1 NMatS0=  28920 NMatT0=    0 NMatD0=    1 NMtDS0=    0 NMtDT0=    0
 Symmetry not used in FoFCou.
 Two-electron integral symmetry not used.
 Closed shell SCF:
 Using DIIS extrapolation, IDIIS=  1040.
 NGot=   524288000 LenX=   105970886 LenY=   105912845
 Requested convergence on RMS density matrix=1.00D-08 within 128 cycles.
 Requested convergence on MAX density matrix=1.00D-06.
 Requested convergence on             energy=1.00D-06.
 No special actions if energy rises.

 Cycle   1  Pass 1  IDiag  1:
 E= -388.533175053017    
 DIIS: error= 5.21D-02 at cycle   1 NSaved=   1.
 NSaved= 1 IEnMin= 1 EnMin= -388.533175053017     IErMin= 1 ErrMin= 5.21D-02
 ErrMax= 5.21D-02  0.00D+00 EMaxC= 1.00D-01 BMatC= 8.07D-01 BMatP= 8.07D-01
 IDIUse=3 WtCom= 4.79D-01 WtEn= 5.21D-01
 Coeff-Com:  0.100D+01
 Coeff-En:   0.100D+01
 Coeff:      0.100D+01
 Gap=     0.508 Goal=   None    Shift=    0.000
 GapD=    0.508 DampG=2.000 DampE=0.500 DampFc=1.0000 IDamp=-1.
 RMSDP=4.00D-03 MaxDP=1.14D-01              OVMax= 1.33D-01

 Cycle   2  Pass 1  IDiag  1:
 E= -389.073875131581     Delta-E=       -0.540700078563 Rises=F Damp=F
 DIIS: error= 1.59D-02 at cycle   2 NSaved=   2.
 NSaved= 2 IEnMin= 2 EnMin= -389.073875131581     IErMin= 2 ErrMin= 1.59D-02
 ErrMax= 1.59D-02  0.00D+00 EMaxC= 1.00D-01 BMatC= 8.66D-02 BMatP= 8.07D-01
 IDIUse=3 WtCom= 8.41D-01 WtEn= 1.59D-01
 Coeff-Com:  0.183D+00 0.817D+00
 Coeff-En:   0.000D+00 0.100D+01
 Coeff:      0.154D+00 0.846D+00
 Gap=     0.549 Goal=   None    Shift=    0.000
 RMSDP=1.63D-03 MaxDP=3.04D-02 DE=-5.41D-01 OVMax= 4.61D-02

 Cycle   3  Pass 1  IDiag  1:
 E= -389.151439337661     Delta-E=       -0.077564206080 Rises=F Damp=F
 DIIS: error= 3.43D-03 at cycle   3 NSaved=   3.
 NSaved= 3 IEnMin= 3 EnMin= -389.151439337661     IErMin= 3 ErrMin= 3.43D-03
 ErrMax= 3.43D-03  0.00D+00 EMaxC= 1.00D-01 BMatC= 3.14D-03 BMatP= 8.66D-02
 IDIUse=3 WtCom= 9.66D-01 WtEn= 3.43D-02
 Coeff-Com: -0.245D-01 0.106D+00 0.919D+00
 Coeff-En:   0.000D+00 0.000D+00 0.100D+01
 Coeff:     -0.236D-01 0.102D+00 0.921D+00
 Gap=     0.499 Goal=   None    Shift=    0.000
 RMSDP=2.59D-04 MaxDP=7.14D-03 DE=-7.76D-02 OVMax= 1.01D-02

 Cycle   4  Pass 1  IDiag  1:
 E= -389.155065171934     Delta-E=       -0.003625834273 Rises=F Damp=F
 DIIS: error= 5.31D-04 at cycle   4 NSaved=   4.
 NSaved= 4 IEnMin= 4 EnMin= -389.155065171934     IErMin= 4 ErrMin= 5.31D-04
 ErrMax= 5.31D-04  0.00D+00 EMaxC= 1.00D-01 BMatC= 9.29D-05 BMatP= 3.14D-03
 IDIUse=3 WtCom= 9.95D-01 WtEn= 5.31D-03
 Coeff-Com: -0.424D-02-0.189D-02 0.950D-01 0.911D+00
 Coeff-En:   0.000D+00 0.000D+00 0.000D+00 0.100D+01
 Coeff:     -0.422D-02-0.188D-02 0.945D-01 0.912D+00
 Gap=     0.499 Goal=   None    Shift=    0.000
 RMSDP=7.39D-05 MaxDP=1.49D-03 DE=-3.63D-03 OVMax= 3.14D-03

 Cycle   5  Pass 1  IDiag  1:
 E= -389.155189519385     Delta-E=       -0.000124347451 Rises=F Damp=F
 DIIS: error= 1.63D-04 at cycle   5 NSaved=   5.
 NSaved= 5 IEnMin= 5 EnMin= -389.155189519385     IErMin= 5 ErrMin= 1.63D-04
 ErrMax= 1.63D-04  0.00D+00 EMaxC= 1.00D-01 BMatC= 1.60D-05 BMatP= 9.29D-05
 IDIUse=3 WtCom= 9.98D-01 WtEn= 1.63D-03
 Coeff-Com:  0.241D-02-0.152D-01-0.102D+00 0.176D+00 0.939D+00
 Coeff-En:   0.000D+00 0.000D+00 0.000D+00 0.000D+00 0.100D+01
 Coeff:      0.241D-02-0.152D-01-0.102D+00 0.175D+00 0.939D+00
 Gap=     0.500 Goal=   None    Shift=    0.000
 RMSDP=3.00D-05 MaxDP=6.56D-04 DE=-1.24D-04 OVMax= 9.23D-04

 Cycle   6  Pass 1  IDiag  1:
 E= -389.155211003280     Delta-E=       -0.000021483894 Rises=F Damp=F
 DIIS: error= 3.58D-05 at cycle   6 NSaved=   6.
 NSaved= 6 IEnMin= 6 EnMin= -389.155211003280     IErMin= 6 ErrMin= 3.58D-05
 ErrMax= 3.58D-05  0.00D+00 EMaxC= 1.00D-01 BMatC= 5.50D-07 BMatP= 1.60D-05
 IDIUse=1 WtCom= 1.00D+00 WtEn= 0.00D+00
 Coeff-Com:  0.720D-03-0.335D-02-0.261D-01-0.434D-02 0.177D+00 0.856D+00
 Coeff:      0.720D-03-0.335D-02-0.261D-01-0.434D-02 0.177D+00 0.856D+00
 Gap=     0.500 Goal=   None    Shift=    0.000
 RMSDP=5.30D-06 MaxDP=1.61D-04 DE=-2.15D-05 OVMax= 3.23D-04

 Cycle   7  Pass 1  IDiag  1:
 E= -389.155211844249     Delta-E=       -0.000000840969 Rises=F Damp=F
 DIIS: error= 1.03D-05 at cycle   7 NSaved=   7.
 NSaved= 7 IEnMin= 7 EnMin= -389.155211844249     IErMin= 7 ErrMin= 1.03D-05
 ErrMax= 1.03D-05  0.00D+00 EMaxC= 1.00D-01 BMatC= 5.44D-08 BMatP= 5.50D-07
 IDIUse=1 WtCom= 1.00D+00 WtEn= 0.00D+00
 Coeff-Com: -0.494D-04 0.463D-03 0.301D-02-0.105D-01-0.468D-01 0.145D+00
 Coeff-Com:  0.909D+00
 Coeff:     -0.494D-04 0.463D-03 0.301D-02-0.105D-01-0.468D-01 0.145D+00
 Coeff:      0.909D+00
 Gap=     0.500 Goal=   None    Shift=    0.000
 RMSDP=1.71D-06 MaxDP=4.09D-05 DE=-8.41D-07 OVMax= 8.42D-05

 Cycle   8  Pass 1  IDiag  1:
 E= -389.155211933157     Delta-E=       -0.000000088908 Rises=F Damp=F
 DIIS: error= 3.51D-06 at cycle   8 NSaved=   8.
 NSaved= 8 IEnMin= 8 EnMin= -389.155211933157     IErMin= 8 ErrMin= 3.51D-06
 ErrMax= 3.51D-06  0.00D+00 EMaxC= 1.00D-01 BMatC= 5.09D-09 BMatP= 5.44D-08
 IDIUse=1 WtCom= 1.00D+00 WtEn= 0.00D+00
 Coeff-Com: -0.581D-04 0.249D-03 0.208D-02 0.315D-02-0.171D-01-0.804D-01
 Coeff-Com: -0.123D+00 0.121D+01
 Coeff:     -0.581D-04 0.249D-03 0.208D-02 0.315D-02-0.171D-01-0.804D-01
 Coeff:     -0.123D+00 0.121D+01
 Gap=     0.500 Goal=   None    Shift=    0.000
 RMSDP=7.85D-07 MaxDP=2.41D-05 DE=-8.89D-08 OVMax= 5.81D-05

 Cycle   9  Pass 1  IDiag  1:
 E= -389.155211949014     Delta-E=       -0.000000015858 Rises=F Damp=F
 DIIS: error= 1.46D-06 at cycle   9 NSaved=   9.
 NSaved= 9 IEnMin= 9 EnMin= -389.155211949014     IErMin= 9 ErrMin= 1.46D-06
 ErrMax= 1.46D-06  0.00D+00 EMaxC= 1.00D-01 BMatC= 7.38D-10 BMatP= 5.09D-09
 IDIUse=1 WtCom= 1.00D+00 WtEn= 0.00D+00
 Coeff-Com:  0.929D-05-0.690D-04-0.480D-03 0.144D-02 0.385D-02 0.957D-04
 Coeff-Com: -0.865D-01-0.120D+00 0.120D+01
 Coeff:      0.929D-05-0.690D-04-0.480D-03 0.144D-02 0.385D-02 0.957D-04
 Coeff:     -0.865D-01-0.120D+00 0.120D+01
 Gap=     0.500 Goal=   None    Shift=    0.000
 RMSDP=2.99D-07 MaxDP=1.24D-05 DE=-1.59D-08 OVMax= 2.71D-05

 Cycle  10  Pass 1  IDiag  1:
 E= -389.155211951427     Delta-E=       -0.000000002412 Rises=F Damp=F
 DIIS: error= 3.97D-07 at cycle  10 NSaved=  10.
 NSaved=10 IEnMin=10 EnMin= -389.155211951427     IErMin=10 ErrMin= 3.97D-07
 ErrMax= 3.97D-07  0.00D+00 EMaxC= 1.00D-01 BMatC= 1.21D-10 BMatP= 7.38D-10
 IDIUse=1 WtCom= 1.00D+00 WtEn= 0.00D+00
 Coeff-Com:  0.952D-05-0.464D-04-0.369D-03-0.135D-03 0.233D-02 0.142D-01
 Coeff-Com:  0.595D-02-0.211D+00 0.143D+00 0.105D+01
 Coeff:      0.952D-05-0.464D-04-0.369D-03-0.135D-03 0.233D-02 0.142D-01
 Coeff:      0.595D-02-0.211D+00 0.143D+00 0.105D+01
 Gap=     0.500 Goal=   None    Shift=    0.000
 RMSDP=1.24D-07 MaxDP=3.07D-06 DE=-2.41D-09 OVMax= 9.87D-06

 Cycle  11  Pass 1  IDiag  1:
 E= -389.155211951754     Delta-E=       -0.000000000327 Rises=F Damp=F
 DIIS: error= 1.55D-07 at cycle  11 NSaved=  11.
 NSaved=11 IEnMin=11 EnMin= -389.155211951754     IErMin=11 ErrMin= 1.55D-07
 ErrMax= 1.55D-07  0.00D+00 EMaxC= 1.00D-01 BMatC= 9.53D-12 BMatP= 1.21D-10
 IDIUse=1 WtCom= 1.00D+00 WtEn= 0.00D+00
 Coeff-Com:  0.394D-06 0.839D-06 0.101D-05-0.149D-03-0.305D-03 0.277D-02
 Coeff-Com:  0.110D-01-0.153D-01-0.107D+00 0.164D+00 0.945D+00
 Coeff:      0.394D-06 0.839D-06 0.101D-05-0.149D-03-0.305D-03 0.277D-02
 Coeff:      0.110D-01-0.153D-01-0.107D+00 0.164D+00 0.945D+00
 Gap=     0.500 Goal=   None    Shift=    0.000
 RMSDP=2.76D-08 MaxDP=1.16D-06 DE=-3.27D-10 OVMax= 2.51D-06

 Cycle  12  Pass 1  IDiag  1:
 E= -389.155211951770     Delta-E=       -0.000000000016 Rises=F Damp=F
 DIIS: error= 3.63D-08 at cycle  12 NSaved=  12.
 NSaved=12 IEnMin=12 EnMin= -389.155211951770     IErMin=12 ErrMin= 3.63D-08
 ErrMax= 3.63D-08  0.00D+00 EMaxC= 1.00D-01 BMatC= 1.17D-12 BMatP= 9.53D-12
 IDIUse=1 WtCom= 1.00D+00 WtEn= 0.00D+00
 Coeff-Com: -0.102D-05 0.547D-05 0.429D-04 0.325D-05-0.342D-03-0.126D-02
 Coeff-Com:  0.366D-03 0.217D-01-0.321D-01-0.113D+00 0.983D-01 0.103D+01
 Coeff:     -0.102D-05 0.547D-05 0.429D-04 0.325D-05-0.342D-03-0.126D-02
 Coeff:      0.366D-03 0.217D-01-0.321D-01-0.113D+00 0.983D-01 0.103D+01
 Gap=     0.500 Goal=   None    Shift=    0.000
 RMSDP=1.18D-08 MaxDP=3.33D-07 DE=-1.59D-11 OVMax= 8.46D-07

 Cycle  13  Pass 1  IDiag  1:
 E= -389.155211951777     Delta-E=       -0.000000000007 Rises=F Damp=F
 DIIS: error= 1.06D-08 at cycle  13 NSaved=  13.
 NSaved=13 IEnMin=13 EnMin= -389.155211951777     IErMin=13 ErrMin= 1.06D-08
 ErrMax= 1.06D-08  0.00D+00 EMaxC= 1.00D-01 BMatC= 5.47D-14 BMatP= 1.17D-12
 IDIUse=1 WtCom= 1.00D+00 WtEn= 0.00D+00
 Coeff-Com: -0.122D-06 0.462D-06 0.389D-05 0.136D-04-0.170D-04-0.298D-03
 Coeff-Com: -0.849D-03 0.352D-02 0.516D-02-0.213D-01-0.612D-01 0.111D+00
 Coeff-Com:  0.964D+00
 Coeff:     -0.122D-06 0.462D-06 0.389D-05 0.136D-04-0.170D-04-0.298D-03
 Coeff:     -0.849D-03 0.352D-02 0.516D-02-0.213D-01-0.612D-01 0.111D+00
 Coeff:      0.964D+00
 Gap=     0.500 Goal=   None    Shift=    0.000
 RMSDP=2.13D-09 MaxDP=7.02D-08 DE=-7.05D-12 OVMax= 1.05D-07

 SCF Done:  E(RHF) =  -389.155211952     A.U. after   13 cycles
            NFock= 13  Conv=0.21D-08     -V/T= 2.0014
 KE= 3.886260877211D+02 PE=-1.937508627915D+03 EE= 6.432899925192D+02
 Leave Link  502 at Fri Sep 17 14:22:42 2021, MaxMem=   524288000 cpu:              18.6 elap:              19.0
 (Enter /opt/gaussian/g16_legacy/l801.exe)
 ExpMin= 1.61D-01 ExpMax= 3.05D+03 ExpMxC= 4.57D+02 IAcc=3 IRadAn=         5 AccDes= 0.00D+00
 HarFok:  IExCor=  205 AccDes= 0.00D+00 IRadAn=         5 IDoV=-2 UseB2=F ITyADJ=14
 ICtDFT= 12500011 ScaDFX=  1.000000  1.000000  1.000000  1.000000
 Largest valence mixing into a core orbital is  1.98D-04
 Largest core mixing into a valence orbital is  3.52D-05
 Range of M.O.s used for correlation:    11   240
 NBasis=   240 NAE=    39 NBE=    39 NFC=    10 NFV=     0
 NROrb=    230 NOA=    29 NOB=    29 NVA=   201 NVB=   201
 Leave Link  801 at Fri Sep 17 14:22:43 2021, MaxMem=   524288000 cpu:               0.9 elap:               1.1
 (Enter /opt/gaussian/g16_legacy/l906.exe)
 Frozen-core derivative calculation, NFC=  10 NFV=   0.
 FulOut=F Deriv=T AODrv=T NAtomX=    28
   MMem=          88  MDisk=          29 MDiskD=          29
  W3Min=     2246400 MinDsk=     2795480 NBas6D=         240
 NBas2D=       29244    NTT=       28920    LW2=     2040000
    MDV=   523626386 MDiskM=       30186 NBas2p=       24383
 Fully direct method using O(ONN) memory.
 IMap=   1   2   3   4   5   6   7   8   9  10  11  12  13  14  15  16  17  18  19  20
 IMap=  21  22  23  24  25  26  27  28  29  30  31  32  33  34  35  36  37  38  39
 JobTyp=1 Pass  1:  I=  11 to  39 NPSUse=  1 ParTrn=F ParDer=F DoDerP=T.
 Spin components of T(2) and E(2):
     alpha-alpha T2 =       0.5715090019D-01 E2=     -0.1638021178D+00
     alpha-beta  T2 =       0.3618113907D+00 E2=     -0.1089334215D+01
     beta-beta   T2 =       0.5715090019D-01 E2=     -0.1638021178D+00
 The integrals were generated   1 times.
 ANorm=    0.1214953987D+01
 E2 =    -0.1416938451D+01 EUMP2 =    -0.39057215040229D+03
 Leave Link  906 at Fri Sep 17 14:25:23 2021, MaxMem=   524288000 cpu:             159.7 elap:             159.7
 (Enter /opt/gaussian/g16_legacy/l1002.exe)
 Minotr:  Closed shell wavefunction.
          Computing MP2/KS-MP2 derivatives.
          Using Z-Vector for PSCF gradient.
          Skipping F1 and S1 gradient terms here.
          IDoAtm=1111111111111111111111111111
          Frozen-core window.
          Direct CPHF calculation.
          Differentiating once with respect to electric field.
                with respect to dipole field.
          Differentiating once with respect to nuclear coordinates.
          Requested convergence is 1.0D-10 RMS, and 1.0D-09 maximum.
          NewPWx=F KeepS1=T KeepF1=T KeepIn=T MapXYZ=F SortEE=F KeepMc=T.
 Keep R1 ints in memory in canonical form, NReq=425201067.
 FoFCou: FMM=F IPFlag=           0 FMFlag=           0 FMFlg1=           0
         NFxFlg=           0 DoJE=F BraDBF=F KetDBF=F FulRan=T
         wScrn=  0.000000 ICntrl=       600 IOpCl=  0 I1Cent=           0 NGrid=           0
         NMat0=    1 NMatS0=  28920 NMatT0=    0 NMatD0=    1 NMtDS0=    0 NMtDT0=    0
 Symmetry not used in FoFCou.
 Two-electron integral symmetry not used.
          MDV=     524288000 using IRadAn=       5.
          Solving linear equations separately, MaxMat=       0.
          There are     1 degrees of freedom in the 1st order CPHF.  IDoFFX=0 NUNeed=     1.
 LinEq1:  Iter=  0 NonCon=     1 RMS=2.55D-03 Max=3.76D-02 NDo=     1
 AX will form     1 AO Fock derivatives at one time.
 LinEq1:  Iter=  1 NonCon=     1 RMS=6.90D-04 Max=9.74D-03 NDo=     1
 LinEq1:  Iter=  2 NonCon=     1 RMS=1.61D-04 Max=4.14D-03 NDo=     1
 LinEq1:  Iter=  3 NonCon=     1 RMS=4.31D-05 Max=5.08D-04 NDo=     1
 LinEq1:  Iter=  4 NonCon=     1 RMS=1.99D-05 Max=8.55D-04 NDo=     1
 LinEq1:  Iter=  5 NonCon=     1 RMS=5.06D-06 Max=8.26D-05 NDo=     1
 LinEq1:  Iter=  6 NonCon=     1 RMS=1.63D-06 Max=2.68D-05 NDo=     1
 LinEq1:  Iter=  7 NonCon=     1 RMS=4.13D-07 Max=4.18D-06 NDo=     1
 LinEq1:  Iter=  8 NonCon=     1 RMS=1.01D-07 Max=1.86D-06 NDo=     1
 LinEq1:  Iter=  9 NonCon=     1 RMS=2.33D-08 Max=6.32D-07 NDo=     1
 LinEq1:  Iter= 10 NonCon=     1 RMS=6.42D-09 Max=1.62D-07 NDo=     1
 LinEq1:  Iter= 11 NonCon=     1 RMS=1.89D-09 Max=3.63D-08 NDo=     1
 LinEq1:  Iter= 12 NonCon=     1 RMS=4.16D-10 Max=7.95D-09 NDo=     1
 LinEq1:  Iter= 13 NonCon=     1 RMS=1.08D-10 Max=9.55D-10 NDo=     1
 LinEq1:  Iter= 14 NonCon=     1 RMS=4.48D-11 Max=1.65D-09 NDo=     1
 LinEq1:  Iter= 15 NonCon=     0 RMS=1.37D-11 Max=1.88D-10 NDo=     1
 Linear equations converged to 1.000D-10 1.000D-09 after    15 iterations.
 End of Minotr F.D. properties file   721 does not exist.
 End of Minotr F.D. properties file   722 does not exist.
 End of Minotr F.D. properties file   788 does not exist.
 Leave Link 1002 at Fri Sep 17 14:25:40 2021, MaxMem=   524288000 cpu:              17.1 elap:              17.2
 (Enter /opt/gaussian/g16_legacy/l601.exe)
 Copying SCF densities to generalized density rwf, IOpCl= 0 IROHF=0.

 **********************************************************************

            Population analysis using the SCF density.

 **********************************************************************

 Orbital symmetries:
       Occupied  (A) (A) (A) (A) (A) (A) (A) (A) (A) (A) (A) (A)
                 (A) (A) (A) (A) (A) (A) (A) (A) (A) (A) (A) (A)
                 (A) (A) (A) (A) (A) (A) (A) (A) (A) (A) (A) (A)
                 (A) (A) (A)
       Virtual   (A) (A) (A) (A) (A) (A) (A) (A) (A) (A) (A) (A)
                 (A) (A) (A) (A) (A) (A) (A) (A) (A) (A) (A) (A)
                 (A) (A) (A) (A) (A) (A) (A) (A) (A) (A) (A) (A)
                 (A) (A) (A) (A) (A) (A) (A) (A) (A) (A) (A) (A)
                 (A) (A) (A) (A) (A) (A) (A) (A) (A) (A) (A) (A)
                 (A) (A) (A) (A) (A) (A) (A) (A) (A) (A) (A) (A)
                 (A) (A) (A) (A) (A) (A) (A) (A) (A) (A) (A) (A)
                 (A) (A) (A) (A) (A) (A) (A) (A) (A) (A) (A) (A)
                 (A) (A) (A) (A) (A) (A) (A) (A) (A) (A) (A) (A)
                 (A) (A) (A) (A) (A) (A) (A) (A) (A) (A) (A) (A)
                 (A) (A) (A) (A) (A) (A) (A) (A) (A) (A) (A) (A)
                 (A) (A) (A) (A) (A) (A) (A) (A) (A) (A) (A) (A)
                 (A) (A) (A) (A) (A) (A) (A) (A) (A) (A) (A) (A)
                 (A) (A) (A) (A) (A) (A) (A) (A) (A) (A) (A) (A)
                 (A) (A) (A) (A) (A) (A) (A) (A) (A) (A) (A) (A)
                 (A) (A) (A) (A) (A) (A) (A) (A) (A) (A) (A) (A)
                 (A) (A) (A) (A) (A) (A) (A) (A) (A)
 The electronic state is 1-A.
 Alpha  occ. eigenvalues --  -11.23060 -11.22504 -11.21999 -11.21921 -11.21883
 Alpha  occ. eigenvalues --  -11.21651 -11.21554 -11.21484 -11.21456 -11.21437
 Alpha  occ. eigenvalues --   -1.10624  -1.08327  -1.01911  -0.98013  -0.93646
 Alpha  occ. eigenvalues --   -0.91775  -0.86756  -0.82686  -0.70598  -0.69341
 Alpha  occ. eigenvalues --   -0.64585  -0.61545  -0.60102  -0.59030  -0.58088
 Alpha  occ. eigenvalues --   -0.56803  -0.55368  -0.55150  -0.53548  -0.51981
 Alpha  occ. eigenvalues --   -0.51716  -0.51320  -0.50592  -0.49230  -0.48275
 Alpha  occ. eigenvalues --   -0.46014  -0.44271  -0.33357  -0.31526
 Alpha virt. eigenvalues --    0.18457   0.19495   0.22038   0.24453   0.25183
 Alpha virt. eigenvalues --    0.27140   0.28394   0.28932   0.30250   0.30504
 Alpha virt. eigenvalues --    0.31237   0.32116   0.33135   0.33436   0.34031
 Alpha virt. eigenvalues --    0.35677   0.35775   0.36970   0.38998   0.40648
 Alpha virt. eigenvalues --    0.41063   0.42593   0.43322   0.44191   0.45149
 Alpha virt. eigenvalues --    0.51684   0.54046   0.61173   0.62446   0.70139
 Alpha virt. eigenvalues --    0.71102   0.71887   0.74279   0.76417   0.76617
 Alpha virt. eigenvalues --    0.76877   0.78795   0.79455   0.81139   0.82036
 Alpha virt. eigenvalues --    0.83811   0.85655   0.88079   0.91266   0.92025
 Alpha virt. eigenvalues --    0.92896   0.95178   0.97057   0.98262   0.99206
 Alpha virt. eigenvalues --    0.99751   1.00202   1.02302   1.03926   1.06182
 Alpha virt. eigenvalues --    1.07862   1.08639   1.08809   1.11198   1.12390
 Alpha virt. eigenvalues --    1.12559   1.13431   1.14582   1.14927   1.15820
 Alpha virt. eigenvalues --    1.16164   1.16403   1.18223   1.18705   1.20090
 Alpha virt. eigenvalues --    1.20660   1.22067   1.22853   1.25019   1.27543
 Alpha virt. eigenvalues --    1.34173   1.40671   1.41852   1.43740   1.45172
 Alpha virt. eigenvalues --    1.47561   1.53476   1.56255   1.56979   1.58249
 Alpha virt. eigenvalues --    1.59850   1.62722   1.65798   1.69519   1.70790
 Alpha virt. eigenvalues --    1.75330   1.82527   1.92037   1.92196   1.95501
 Alpha virt. eigenvalues --    1.98630   2.01126   2.02848   2.04184   2.08701
 Alpha virt. eigenvalues --    2.09244   2.11121   2.11378   2.13102   2.14505
 Alpha virt. eigenvalues --    2.15426   2.17690   2.19727   2.23579   2.27384
 Alpha virt. eigenvalues --    2.28340   2.29996   2.32203   2.34972   2.35567
 Alpha virt. eigenvalues --    2.35646   2.35782   2.39323   2.39848   2.40350
 Alpha virt. eigenvalues --    2.41280   2.41824   2.43038   2.45161   2.45386
 Alpha virt. eigenvalues --    2.47032   2.48340   2.49336   2.50338   2.54526
 Alpha virt. eigenvalues --    2.56588   2.57721   2.61274   2.62184   2.64355
 Alpha virt. eigenvalues --    2.66340   2.67160   2.72034   2.72996   2.73746
 Alpha virt. eigenvalues --    2.75720   2.77698   2.81091   2.82805   2.85158
 Alpha virt. eigenvalues --    2.87731   2.89156   2.91918   2.93439   2.94437
 Alpha virt. eigenvalues --    2.97094   2.99035   3.01164   3.02601   3.05100
 Alpha virt. eigenvalues --    3.05825   3.06631   3.08505   3.13017   3.15940
 Alpha virt. eigenvalues --    3.17135   3.18163   3.19615   3.20679   3.21267
 Alpha virt. eigenvalues --    3.23190   3.24414   3.26464   3.27244   3.36666
 Alpha virt. eigenvalues --    3.39072   3.44608   3.45620   3.55549   3.57291
 Alpha virt. eigenvalues --    3.58697   3.61055   3.66893   3.73953   3.78198
 Alpha virt. eigenvalues --    3.78867   3.80509   3.81325   3.82331   3.82836
 Alpha virt. eigenvalues --    3.84208   3.85750   3.87654   3.89511   3.91176
 Alpha virt. eigenvalues --    3.95899   4.59096   4.62636   4.74428   4.82816
 Alpha virt. eigenvalues --    4.88837   4.92668   4.93353   5.07549   5.10289
 Alpha virt. eigenvalues --    5.16870
          Condensed to atoms (all electrons):
               1          2          3          4          5          6
     1  C    5.001835   0.413507   0.412352   0.340287  -0.058752   0.003676
     2  H    0.413507   0.588505  -0.030235  -0.045051  -0.004692   0.000081
     3  H    0.412352  -0.030235   0.571693  -0.040532   0.003238  -0.000103
     4  C    0.340287  -0.045051  -0.040532   4.955022   0.349335  -0.041413
     5  C   -0.058752  -0.004692   0.003238   0.349335   4.896457   0.406173
     6  H    0.003676   0.000081  -0.000103  -0.041413   0.406173   0.571047
     7  H   -0.003554   0.002570  -0.000016  -0.043069   0.397386  -0.027606
     8  H   -0.000531  -0.000276  -0.000030  -0.045805   0.400281  -0.028078
     9  C   -0.044049   0.001918  -0.002232   0.698861  -0.045930  -0.002737
    10  H    0.003079  -0.000114   0.000060  -0.036528  -0.006483   0.002223
    11  C   -0.007063   0.000138  -0.002135  -0.050689   0.003424   0.000137
    12  H    0.000232  -0.000010  -0.000034   0.000593  -0.000100  -0.000009
    13  H    0.000227   0.000028   0.000172  -0.001413  -0.000116  -0.000004
    14  H   -0.001827   0.000004  -0.001334  -0.000418   0.000092   0.000004
    15  C    0.000597  -0.000016   0.000160  -0.000017  -0.000000  -0.000000
    16  H   -0.000041   0.000000   0.000014   0.000001  -0.000000   0.000000
    17  H    0.000077  -0.000001  -0.000076  -0.000002   0.000000  -0.000000
    18  H   -0.000053  -0.000012  -0.000052  -0.000027  -0.000000   0.000000
    19  C   -0.003607   0.000615   0.001046   0.000006  -0.000002   0.000000
    20  C   -0.000101  -0.000000  -0.000042   0.000002  -0.000000   0.000000
    21  H   -0.000004   0.000000   0.000001   0.000000  -0.000000   0.000000
    22  H    0.000022  -0.000001  -0.000005  -0.000000   0.000000  -0.000000
    23  H   -0.000003   0.000002  -0.000002   0.000000  -0.000000   0.000000
    24  C   -0.063066  -0.000608  -0.000807   0.006130  -0.000158   0.000003
    25  H    0.000004   0.001004   0.000213  -0.000155   0.000010  -0.000000
    26  C    0.326229  -0.044597  -0.039855  -0.057359  -0.000188  -0.000097
    27  H   -0.040288   0.004202  -0.002144  -0.001438   0.000317  -0.000010
    28  H   -0.045136  -0.002604   0.004291  -0.001852  -0.000392  -0.000025
               7          8          9         10         11         12
     1  C   -0.003554  -0.000531  -0.044049   0.003079  -0.007063   0.000232
     2  H    0.002570  -0.000276   0.001918  -0.000114   0.000138  -0.000010
     3  H   -0.000016  -0.000030  -0.002232   0.000060  -0.002135  -0.000034
     4  C   -0.043069  -0.045805   0.698861  -0.036528  -0.050689   0.000593
     5  C    0.397386   0.400281  -0.045930  -0.006483   0.003424  -0.000100
     6  H   -0.027606  -0.028078  -0.002737   0.002223   0.000137  -0.000009
     7  H    0.593608  -0.035015  -0.000426   0.000248  -0.000114  -0.000004
     8  H   -0.035015   0.594771  -0.001034   0.000123  -0.000100   0.000015
     9  C   -0.000426  -0.001034   4.939953   0.404864   0.337725  -0.042844
    10  H    0.000248   0.000123   0.404864   0.559373  -0.043639  -0.002648
    11  C   -0.000114  -0.000100   0.337725  -0.043639   4.906210   0.402999
    12  H   -0.000004   0.000015  -0.042844  -0.002648   0.402999   0.586828
    13  H    0.000021  -0.000005  -0.044354  -0.000222   0.400037  -0.033274
    14  H   -0.000001   0.000000  -0.041941   0.003315   0.408024  -0.030015
    15  C   -0.000000  -0.000000   0.000010  -0.000000  -0.000097  -0.000004
    16  H    0.000000   0.000000   0.000000   0.000000   0.000002  -0.000000
    17  H   -0.000000   0.000000   0.000000  -0.000000  -0.000003   0.000000
    18  H   -0.000000   0.000000  -0.000032   0.000000   0.000040   0.000042
    19  C    0.000000   0.000000   0.000001   0.000000   0.000007   0.000000
    20  C   -0.000000  -0.000000  -0.000000   0.000000  -0.000000  -0.000000
    21  H    0.000000   0.000000   0.000000   0.000000  -0.000000  -0.000000
    22  H   -0.000000   0.000000  -0.000000  -0.000000   0.000000   0.000000
    23  H   -0.000000  -0.000000  -0.000000   0.000000   0.000000  -0.000000
    24  C    0.000001  -0.000086   0.000070   0.000002  -0.000032  -0.000004
    25  H   -0.000002   0.000012  -0.000002  -0.000000   0.000000   0.000000
    26  C    0.000027   0.000810  -0.004367  -0.000116   0.000690   0.000091
    27  H    0.000012  -0.000009   0.001215  -0.000044   0.000070  -0.000079
    28  H    0.000093  -0.000187   0.000514   0.000004  -0.000030   0.000000
              13         14         15         16         17         18
     1  C    0.000227  -0.001827   0.000597  -0.000041   0.000077  -0.000053
     2  H    0.000028   0.000004  -0.000016   0.000000  -0.000001  -0.000012
     3  H    0.000172  -0.001334   0.000160   0.000014  -0.000076  -0.000052
     4  C   -0.001413  -0.000418  -0.000017   0.000001  -0.000002  -0.000027
     5  C   -0.000116   0.000092  -0.000000  -0.000000   0.000000  -0.000000
     6  H   -0.000004   0.000004  -0.000000   0.000000  -0.000000   0.000000
     7  H    0.000021  -0.000001  -0.000000   0.000000  -0.000000  -0.000000
     8  H   -0.000005   0.000000  -0.000000   0.000000   0.000000   0.000000
     9  C   -0.044354  -0.041941   0.000010   0.000000   0.000000  -0.000032
    10  H   -0.000222   0.003315  -0.000000   0.000000  -0.000000   0.000000
    11  C    0.400037   0.408024  -0.000097   0.000002  -0.000003   0.000040
    12  H   -0.033274  -0.030015  -0.000004  -0.000000   0.000000   0.000042
    13  H    0.584218  -0.026856   0.000002   0.000000  -0.000000  -0.000008
    14  H   -0.026856   0.573883   0.000010  -0.000006   0.000034   0.000570
    15  C    0.000002   0.000010   4.909238   0.398263   0.402445   0.406151
    16  H    0.000000  -0.000006   0.398263   0.582557  -0.033099  -0.026270
    17  H   -0.000000   0.000034   0.402445  -0.033099   0.586197  -0.030017
    18  H   -0.000008   0.000570   0.406151  -0.026270  -0.030017   0.568176
    19  C   -0.000000  -0.000013   0.348389  -0.043830  -0.043927  -0.037055
    20  C    0.000000   0.000000  -0.065373  -0.001684  -0.003429   0.003677
    21  H    0.000000  -0.000000  -0.001106   0.002553  -0.000507  -0.000023
    22  H   -0.000000  -0.000000  -0.002139  -0.000371   0.002846  -0.000072
    23  H   -0.000000  -0.000000   0.003695  -0.000079   0.000010  -0.000108
    24  C    0.000002   0.000003  -0.043330  -0.000843   0.000448  -0.002869
    25  H    0.000000  -0.000001   0.003366  -0.000126  -0.000110   0.000059
    26  C   -0.000050  -0.000212  -0.007534   0.000188   0.000286  -0.001945
    27  H    0.000023  -0.000252  -0.002064   0.000056  -0.000043  -0.001170
    28  H   -0.000000  -0.000008   0.000169   0.000032  -0.000012   0.000031
              19         20         21         22         23         24
     1  C   -0.003607  -0.000101  -0.000004   0.000022  -0.000003  -0.063066
     2  H    0.000615  -0.000000   0.000000  -0.000001   0.000002  -0.000608
     3  H    0.001046  -0.000042   0.000001  -0.000005  -0.000002  -0.000807
     4  C    0.000006   0.000002   0.000000  -0.000000   0.000000   0.006130
     5  C   -0.000002  -0.000000  -0.000000   0.000000  -0.000000  -0.000158
     6  H    0.000000   0.000000   0.000000  -0.000000   0.000000   0.000003
     7  H    0.000000  -0.000000   0.000000  -0.000000  -0.000000   0.000001
     8  H    0.000000  -0.000000   0.000000   0.000000  -0.000000  -0.000086
     9  C    0.000001  -0.000000   0.000000  -0.000000  -0.000000   0.000070
    10  H    0.000000   0.000000   0.000000  -0.000000   0.000000   0.000002
    11  C    0.000007  -0.000000  -0.000000   0.000000   0.000000  -0.000032
    12  H    0.000000  -0.000000  -0.000000   0.000000  -0.000000  -0.000004
    13  H   -0.000000   0.000000   0.000000  -0.000000  -0.000000   0.000002
    14  H   -0.000013   0.000000  -0.000000  -0.000000  -0.000000   0.000003
    15  C    0.348389  -0.065373  -0.001106  -0.002139   0.003695  -0.043330
    16  H   -0.043830  -0.001684   0.002553  -0.000371  -0.000079  -0.000843
    17  H   -0.043927  -0.003429  -0.000507   0.002846   0.000010   0.000448
    18  H   -0.037055   0.003677  -0.000023  -0.000072  -0.000108  -0.002869
    19  C    4.918234   0.352281  -0.045764  -0.044300  -0.040400   0.698185
    20  C    0.352281   4.903227   0.399259   0.396991   0.405424  -0.044854
    21  H   -0.045764   0.399259   0.593069  -0.034893  -0.027561  -0.001135
    22  H   -0.044300   0.396991  -0.034893   0.594274  -0.027369  -0.000547
    23  H   -0.040400   0.405424  -0.027561  -0.027369   0.568036  -0.002386
    24  C    0.698185  -0.044854  -0.001135  -0.000547  -0.002386   4.961513
    25  H   -0.036144  -0.006749   0.000150   0.000235   0.002177   0.402010
    26  C   -0.048261   0.003152  -0.000124  -0.000086   0.000146   0.339927
    27  H    0.000823   0.000070   0.000004  -0.000004   0.000006  -0.043821
    28  H    0.000914  -0.000102   0.000012  -0.000002  -0.000011  -0.043347
              25         26         27         28
     1  C    0.000004   0.326229  -0.040288  -0.045136
     2  H    0.001004  -0.044597   0.004202  -0.002604
     3  H    0.000213  -0.039855  -0.002144   0.004291
     4  C   -0.000155  -0.057359  -0.001438  -0.001852
     5  C    0.000010  -0.000188   0.000317  -0.000392
     6  H   -0.000000  -0.000097  -0.000010  -0.000025
     7  H   -0.000002   0.000027   0.000012   0.000093
     8  H    0.000012   0.000810  -0.000009  -0.000187
     9  C   -0.000002  -0.004367   0.001215   0.000514
    10  H   -0.000000  -0.000116  -0.000044   0.000004
    11  C    0.000000   0.000690   0.000070  -0.000030
    12  H    0.000000   0.000091  -0.000079   0.000000
    13  H    0.000000  -0.000050   0.000023  -0.000000
    14  H   -0.000001  -0.000212  -0.000252  -0.000008
    15  C    0.003366  -0.007534  -0.002064   0.000169
    16  H   -0.000126   0.000188   0.000056   0.000032
    17  H   -0.000110   0.000286  -0.000043  -0.000012
    18  H    0.000059  -0.001945  -0.001170   0.000031
    19  C   -0.036144  -0.048261   0.000823   0.000914
    20  C   -0.006749   0.003152   0.000070  -0.000102
    21  H    0.000150  -0.000124   0.000004   0.000012
    22  H    0.000235  -0.000086  -0.000004  -0.000002
    23  H    0.002177   0.000146   0.000006  -0.000011
    24  C    0.402010   0.339927  -0.043821  -0.043347
    25  H    0.558539  -0.041273   0.003231  -0.003486
    26  C   -0.041273   4.982276   0.414882   0.413781
    27  H    0.003231   0.414882   0.571217  -0.029595
    28  H   -0.003486   0.413781  -0.029595   0.588470
 Mulliken charges:
               1
     1  C   -0.234048
     2  H    0.115643
     3  H    0.126394
     4  C    0.015531
     5  C   -0.339900
     6  H    0.116737
     7  H    0.115841
     8  H    0.115143
     9  C   -0.155185
    10  H    0.116500
    11  C   -0.355602
    12  H    0.118223
    13  H    0.121573
    14  H    0.116943
    15  C   -0.350814
    16  H    0.122683
    17  H    0.118883
    18  H    0.120965
    19  C    0.022804
    20  C   -0.341750
    21  H    0.116069
    22  H    0.115420
    23  H    0.118420
    24  C   -0.160400
    25  H    0.117038
    26  C   -0.236421
    27  H    0.124831
    28  H    0.118478
 Sum of Mulliken charges =  -0.00000
 Mulliken charges with hydrogens summed into heavy atoms:
               1
     1  C    0.007989
     4  C    0.015531
     5  C    0.007820
     9  C   -0.038684
    11  C    0.001137
    15  C    0.011717
    19  C    0.022804
    20  C    0.008159
    24  C   -0.043362
    26  C    0.006888
 Electronic spatial extent (au):  <R**2>=           2423.6380
 Charge=             -0.0000 electrons
 Dipole moment (field-independent basis, Debye):
    X=              0.2948    Y=              0.1262    Z=             -0.0057  Tot=              0.3207
 Quadrupole moment (field-independent basis, Debye-Ang):
   XX=            -64.5130   YY=            -63.6034   ZZ=            -67.0538
   XY=              0.6106   XZ=              0.8623   YZ=             -0.4849
 Traceless Quadrupole moment (field-independent basis, Debye-Ang):
   XX=              0.5438   YY=              1.4533   ZZ=             -1.9971
   XY=              0.6106   XZ=              0.8623   YZ=             -0.4849
 Octapole moment (field-independent basis, Debye-Ang**2):
  XXX=              1.3689  YYY=             -2.7206  ZZZ=              0.1865  XYY=             -0.5723
  XXY=              4.5358  XXZ=             -2.6498  XZZ=              1.5758  YZZ=              1.2276
  YYZ=              1.3715  XYZ=             -0.7518
 Hexadecapole moment (field-independent basis, Debye-Ang**3):
 XXXX=          -2492.3147 YYYY=           -696.1025 ZZZZ=           -174.8256 XXXY=             -2.3468
 XXXZ=             11.9273 YYYX=             -9.3531 YYYZ=             -3.0472 ZZZX=             -0.8367
 ZZZY=             -0.0627 XXYY=           -530.4694 XXZZ=           -456.3103 YYZZ=           -139.1705
 XXYZ=             -4.2380 YYXZ=              3.1963 ZZXY=              4.6976
 N-N= 5.164373357232D+02 E-N=-1.937508628027D+03  KE= 3.886260877211D+02
 No NMR shielding tensors so no spin-rotation constants.
 Leave Link  601 at Fri Sep 17 14:25:40 2021, MaxMem=   524288000 cpu:               0.2 elap:               0.2
 (Enter /opt/gaussian/g16_legacy/l701.exe)
 ... and contract with generalized density number  2.
 Compute integral first derivatives.
 Leave Link  701 at Fri Sep 17 14:25:41 2021, MaxMem=   524288000 cpu:               0.1 elap:               0.1
 (Enter /opt/gaussian/g16_legacy/l702.exe)
 L702 exits ... SP integral derivatives will be done elsewhere.
 Leave Link  702 at Fri Sep 17 14:25:41 2021, MaxMem=   524288000 cpu:               0.0 elap:               0.0
 (Enter /opt/gaussian/g16_legacy/l703.exe)
 Integral derivatives from FoFJK, PRISM(SPDF).
 Compute integral first derivatives, UseDBF=F ICtDFT=           0.
 Calling FoFJK, ICntrl=  10002127 FMM=F ISym2X=0 I1Cent= 0 IOpClX= 0 NMat=1 NMatS=1 NMatT=0.
 FoFJK:  IHMeth= 1 ICntrl=10002127 DoSepK=F KAlg= 0 I1Cent=           0 FoldK=F
 IRaf=         0 NMat=       1 IRICut=       1 DoRegI=T DoRafI=F ISym2E= 0 IDoP0=0 IntGTp=1.
 FoFCou: FMM=F IPFlag=           0 FMFlag=      100000 FMFlg1=         800
         NFxFlg=           0 DoJE=F BraDBF=F KetDBF=F FulRan=T
         wScrn=  0.000000 ICntrl=  10002127 IOpCl=  0 I1Cent=           0 NGrid=           0
         NMat0=    1 NMatS0=      1 NMatT0=    0 NMatD0=    1 NMtDS0=    0 NMtDT0=    0
 Symmetry not used in FoFCou.
 Leave Link  703 at Fri Sep 17 14:26:01 2021, MaxMem=   524288000 cpu:              19.9 elap:              19.9
 (Enter /opt/gaussian/g16_legacy/l716.exe)
 Dipole        = 9.11083112D-02 6.69037469D-02-4.69785568D-03
 ***** Axes restored to original set *****
 -------------------------------------------------------------------
 Center     Atomic                   Forces (Hartrees/Bohr)
 Number     Number              X              Y              Z
 -------------------------------------------------------------------
      1        6          -0.009000862    0.002530122   -0.001625493
      2        1           0.000976237   -0.002275487   -0.002926837
      3        1           0.001994803   -0.003750563   -0.001947561
      4        6          -0.004712679    0.000988668    0.004291526
      5        6          -0.002495850   -0.001670916   -0.001170091
      6        1           0.003136750    0.002583564   -0.000627019
      7        1           0.002194240   -0.002121773   -0.001391850
      8        1          -0.001075102    0.001217568    0.002970682
      9        6           0.002889343   -0.002330952   -0.000083342
     10        1           0.002766374   -0.000526479    0.002241095
     11        6           0.001293071    0.001790991   -0.001558033
     12        1          -0.000937731    0.002784759    0.001909930
     13        1           0.001550364    0.000123748   -0.003043265
     14        1          -0.002516121   -0.001489141    0.001584200
     15        6          -0.003912834   -0.001660403   -0.001602402
     16        1          -0.001191079    0.002920953    0.000295105
     17        1           0.002568543   -0.002516076   -0.000634644
     18        1           0.002884975   -0.000676733    0.001775369
     19        6          -0.000780054    0.000474539    0.005227805
     20        6           0.000277252   -0.000809881    0.003296880
     21        1          -0.001208256    0.003062165    0.000783162
     22        1           0.002545146   -0.001617110   -0.001829494
     23        1          -0.002391261    0.000052947   -0.003632593
     24        6           0.000359748   -0.004918078   -0.001808930
     25        1           0.000955363    0.002615175   -0.001991506
     26        6           0.007812843    0.000585201   -0.001345042
     27        1          -0.001360462    0.002500237    0.002814024
     28        1          -0.002622760    0.002132956    0.000028323
 -------------------------------------------------------------------
 Cartesian Forces:  Max     0.009000862 RMS     0.002572151
 Leave Link  716 at Fri Sep 17 14:26:01 2021, MaxMem=   524288000 cpu:               0.0 elap:               0.0
 (Enter /opt/gaussian/g16_legacy/l103.exe)

 GradGradGradGradGradGradGradGradGradGradGradGradGradGradGradGradGradGrad
 Berny optimization.
 FormGI is forming the generalized inverse of G from B-inverse, IUseBI=4.
 Internal  Forces:  Max     0.004881573 RMS     0.001916378
 Search for a local minimum.
 Step number   1 out of a maximum of  138
 All quantities printed in internal units (Hartrees-Bohrs-Radians)
 RMS Force = .19164D-02 SwitMx=.10000D-02 MixMth= 1
 Mixed Optimization -- RFO/linear search
 Second derivative matrix not updated -- first step.
 ITU=  0
     Eigenvalues ---    0.00343   0.00570   0.00671   0.00680   0.00692
     Eigenvalues ---    0.00714   0.00818   0.01219   0.01286   0.01569
     Eigenvalues ---    0.01642   0.02780   0.02785   0.04018   0.04138
     Eigenvalues ---    0.05349   0.05399   0.06978   0.07035   0.07091
     Eigenvalues ---    0.07093   0.07269   0.07301   0.07347   0.07505
     Eigenvalues ---    0.09277   0.09362   0.12766   0.12843   0.15999
     Eigenvalues ---    0.15999   0.16000   0.16000   0.16000   0.16000
     Eigenvalues ---    0.16000   0.16000   0.16000   0.16000   0.16000
     Eigenvalues ---    0.16000   0.16000   0.16000   0.21858   0.21866
     Eigenvalues ---    0.22000   0.22000   0.24994   0.24997   0.24998
     Eigenvalues ---    0.24999   0.29241   0.30869   0.31634   0.31702
     Eigenvalues ---    0.31800   0.31969   0.32792   0.33861   0.33976
     Eigenvalues ---    0.34066   0.34198   0.34220   0.34228   0.34242
     Eigenvalues ---    0.34250   0.34251   0.34254   0.34257   0.34258
     Eigenvalues ---    0.34292   0.34343   0.34550   0.34562   0.34796
     Eigenvalues ---    0.34841   0.55510   0.55583
 RFO step:  Lambda=-2.95994351D-03 EMin= 3.42809951D-03
 Linear search not attempted -- first point.
 Iteration  1 RMS(Cart)=  0.03967634 RMS(Int)=  0.00072326
 Iteration  2 RMS(Cart)=  0.00093486 RMS(Int)=  0.00016617
 Iteration  3 RMS(Cart)=  0.00000043 RMS(Int)=  0.00016617
 ITry= 1 IFail=0 DXMaxC= 1.79D-01 DCOld= 1.00D+10 DXMaxT= 3.00D-01 DXLimC= 3.00D+00 Rises=F
 Variable       Old X    -DE/DX   Delta X   Delta X   Delta X     New X
                                 (Linear)    (Quad)   (Total)
    R1        2.07565  -0.00281   0.00000  -0.00823  -0.00823   2.06742
    R2        2.07219  -0.00330   0.00000  -0.00959  -0.00959   2.06260
    R3        2.86263  -0.00353   0.00000  -0.01134  -0.01134   2.85129
    R4        2.89504   0.00173   0.00000   0.00586   0.00586   2.90090
    R5        2.84819  -0.00045   0.00000  -0.00140  -0.00140   2.84679
    R6        2.54682  -0.00390   0.00000  -0.00700  -0.00700   2.53982
    R7        2.06961  -0.00372   0.00000  -0.01078  -0.01078   2.05883
    R8        2.06899  -0.00212   0.00000  -0.00614  -0.00614   2.06285
    R9        2.06840  -0.00181   0.00000  -0.00525  -0.00525   2.06315
   R10        2.05933  -0.00225   0.00000  -0.00641  -0.00641   2.05292
   R11        2.82718   0.00309   0.00000   0.00933   0.00933   2.83651
   R12        2.06909  -0.00266   0.00000  -0.00769  -0.00769   2.06140
   R13        2.06756  -0.00153   0.00000  -0.00443  -0.00443   2.06313
   R14        2.06392  -0.00286   0.00000  -0.00820  -0.00820   2.05572
   R15        2.06897  -0.00191   0.00000  -0.00552  -0.00552   2.06346
   R16        2.06997  -0.00262   0.00000  -0.00759  -0.00759   2.06238
   R17        2.06412  -0.00282   0.00000  -0.00810  -0.00810   2.05602
   R18        2.84200  -0.00049   0.00000  -0.00152  -0.00152   2.84049
   R19        2.84692  -0.00080   0.00000  -0.00250  -0.00250   2.84443
   R20        2.54618  -0.00321   0.00000  -0.00575  -0.00575   2.54043
   R21        2.06923  -0.00203   0.00000  -0.00588  -0.00588   2.06335
   R22        2.06908  -0.00198   0.00000  -0.00573  -0.00573   2.06335
   R23        2.06947  -0.00396   0.00000  -0.01147  -0.01147   2.05800
   R24        2.06008  -0.00198   0.00000  -0.00566  -0.00566   2.05442
   R25        2.84512  -0.00152   0.00000  -0.00473  -0.00473   2.84038
   R26        2.06903  -0.00273   0.00000  -0.00791  -0.00791   2.06113
   R27        2.07370  -0.00236   0.00000  -0.00687  -0.00687   2.06683
    A1        1.82986   0.00207   0.00000   0.02251   0.02235   1.85221
    A2        1.90270  -0.00070   0.00000  -0.00278  -0.00277   1.89992
    A3        1.92005  -0.00194   0.00000  -0.01725  -0.01728   1.90277
    A4        1.93012   0.00043   0.00000   0.00929   0.00933   1.93945
    A5        1.91837  -0.00278   0.00000  -0.02021  -0.02024   1.89813
    A6        1.95838   0.00283   0.00000   0.00910   0.00914   1.96753
    A7        2.00826   0.00238   0.00000   0.00971   0.00914   2.01740
    A8        2.17068  -0.00488   0.00000  -0.01893  -0.01947   2.15122
    A9        2.10406   0.00252   0.00000   0.01033   0.00975   2.11381
   A10        1.95924  -0.00262   0.00000  -0.01307  -0.01303   1.94621
   A11        1.92479   0.00166   0.00000   0.00903   0.00905   1.93383
   A12        1.92811   0.00227   0.00000   0.01210   0.01213   1.94023
   A13        1.87761   0.00109   0.00000   0.01016   0.01019   1.88780
   A14        1.87701   0.00055   0.00000   0.00562   0.00566   1.88267
   A15        1.89493  -0.00307   0.00000  -0.02468  -0.02468   1.87025
   A16        2.06973  -0.00194   0.00000  -0.01341  -0.01342   2.05630
   A17        2.22515  -0.00188   0.00000  -0.00839  -0.00841   2.21674
   A18        1.98817   0.00382   0.00000   0.02197   0.02195   2.01012
   A19        1.90997   0.00238   0.00000   0.01563   0.01557   1.92554
   A20        1.91726   0.00395   0.00000   0.02327   0.02324   1.94050
   A21        1.98124  -0.00299   0.00000  -0.01842  -0.01833   1.96291
   A22        1.88717  -0.00309   0.00000  -0.01887  -0.01905   1.86812
   A23        1.87268   0.00052   0.00000   0.00494   0.00501   1.87768
   A24        1.89290  -0.00095   0.00000  -0.00763  -0.00753   1.88538
   A25        1.89065  -0.00240   0.00000  -0.02160  -0.02158   1.86906
   A26        1.88448   0.00023   0.00000   0.00322   0.00324   1.88772
   A27        1.92153   0.00231   0.00000   0.01175   0.01177   1.93331
   A28        1.86368   0.00201   0.00000   0.01701   0.01702   1.88070
   A29        1.92082  -0.00000   0.00000  -0.00090  -0.00088   1.91994
   A30        1.97978  -0.00223   0.00000  -0.01026  -0.01023   1.96954
   A31        1.99469   0.00146   0.00000   0.00580   0.00578   2.00047
   A32        2.18259  -0.00327   0.00000  -0.01291  -0.01293   2.16966
   A33        2.10586   0.00182   0.00000   0.00722   0.00720   2.11306
   A34        1.92343   0.00175   0.00000   0.00877   0.00879   1.93222
   A35        1.92491   0.00220   0.00000   0.01235   0.01237   1.93729
   A36        1.96049  -0.00276   0.00000  -0.01375  -0.01371   1.94678
   A37        1.89494  -0.00314   0.00000  -0.02547  -0.02546   1.86948
   A38        1.87884   0.00091   0.00000   0.00790   0.00793   1.88678
   A39        1.87921   0.00092   0.00000   0.00936   0.00939   1.88861
   A40        2.06713  -0.00167   0.00000  -0.01181  -0.01221   2.05492
   A41        2.22717  -0.00226   0.00000  -0.00996  -0.01037   2.21680
   A42        1.98875   0.00394   0.00000   0.02256   0.02213   2.01089
   A43        1.94447   0.00330   0.00000   0.01367   0.01369   1.95816
   A44        1.92609  -0.00264   0.00000  -0.02497  -0.02504   1.90105
   A45        1.92087  -0.00238   0.00000  -0.01474  -0.01494   1.90593
   A46        1.94649  -0.00052   0.00000  -0.00234  -0.00229   1.94421
   A47        1.88061   0.00060   0.00000   0.01705   0.01709   1.89770
   A48        1.84198   0.00155   0.00000   0.01185   0.01159   1.85357
    D1       -0.63957   0.00059   0.00000  -0.02155  -0.02131  -0.66088
    D2        2.48155   0.00157   0.00000   0.04072   0.04052   2.52206
    D3       -2.64261  -0.00174   0.00000  -0.05218  -0.05197  -2.69457
    D4        0.47851  -0.00076   0.00000   0.01009   0.00986   0.48837
[...]
                 (A) (A) (A) (A) (A) (A) (A) (A) (A) (A) (A) (A)
                 (A) (A) (A) (A) (A) (A) (A) (A) (A) (A) (A) (A)
                 (A) (A) (A) (A) (A) (A) (A) (A) (A) (A) (A) (A)
                 (A) (A) (A) (A) (A) (A) (A) (A) (A) (A) (A) (A)
                 (A) (A) (A) (A) (A) (A) (A) (A) (A) (A) (A) (A)
                 (A) (A) (A) (A) (A) (A) (A) (A) (A) (A) (A) (A)
                 (A) (A) (A) (A) (A) (A) (A) (A) (A) (A) (A) (A)
                 (A) (A) (A) (A) (A) (A) (A) (A) (A) (A) (A) (A)
                 (A) (A) (A) (A) (A) (A) (A) (A) (A)
 The electronic state is 1-A.
 Alpha  occ. eigenvalues --  -11.23020 -11.22460 -11.21868 -11.21730 -11.21712
 Alpha  occ. eigenvalues --  -11.21539 -11.21506 -11.21436 -11.21417 -11.21348
 Alpha  occ. eigenvalues --   -1.10821  -1.08492  -1.01823  -0.98143  -0.93838
 Alpha  occ. eigenvalues --   -0.91939  -0.86963  -0.82855  -0.70494  -0.69519
 Alpha  occ. eigenvalues --   -0.64988  -0.61512  -0.60591  -0.58878  -0.58366
 Alpha  occ. eigenvalues --   -0.56774  -0.55298  -0.54966  -0.53295  -0.52261
 Alpha  occ. eigenvalues --   -0.51859  -0.51173  -0.50832  -0.49581  -0.48519
 Alpha  occ. eigenvalues --   -0.46073  -0.44624  -0.33371  -0.31514
 Alpha virt. eigenvalues --    0.18142   0.19779   0.22152   0.24486   0.25192
 Alpha virt. eigenvalues --    0.27439   0.28535   0.28922   0.30318   0.30811
 Alpha virt. eigenvalues --    0.31477   0.32261   0.33202   0.33794   0.34383
 Alpha virt. eigenvalues --    0.35458   0.36114   0.36962   0.39185   0.40602
 Alpha virt. eigenvalues --    0.41328   0.42631   0.43685   0.44253   0.45395
 Alpha virt. eigenvalues --    0.51702   0.54378   0.61070   0.62576   0.70520
 Alpha virt. eigenvalues --    0.71073   0.72196   0.73768   0.76075   0.76177
 Alpha virt. eigenvalues --    0.76620   0.79010   0.79474   0.81070   0.82306
 Alpha virt. eigenvalues --    0.83713   0.85579   0.89117   0.91091   0.91343
 Alpha virt. eigenvalues --    0.92820   0.94745   0.97065   0.98284   0.98818
 Alpha virt. eigenvalues --    0.99710   1.00468   1.01911   1.03844   1.06577
 Alpha virt. eigenvalues --    1.08019   1.08221   1.09393   1.11664   1.12687
 Alpha virt. eigenvalues --    1.13026   1.13870   1.14856   1.15402   1.16045
 Alpha virt. eigenvalues --    1.16257   1.16619   1.18722   1.19116   1.20671
 Alpha virt. eigenvalues --    1.20953   1.23032   1.23885   1.25765   1.28153
 Alpha virt. eigenvalues --    1.34331   1.41723   1.42153   1.44890   1.46395
 Alpha virt. eigenvalues --    1.48456   1.54136   1.55360   1.57256   1.58165
 Alpha virt. eigenvalues --    1.61459   1.63397   1.66485   1.69046   1.69645
 Alpha virt. eigenvalues --    1.73917   1.82243   1.91111   1.93363   1.96231
 Alpha virt. eigenvalues --    1.98688   2.01467   2.02277   2.03942   2.08565
 Alpha virt. eigenvalues --    2.09706   2.10748   2.11744   2.13037   2.14903
 Alpha virt. eigenvalues --    2.15780   2.16940   2.19854   2.23666   2.28347
 Alpha virt. eigenvalues --    2.29590   2.30325   2.33235   2.35347   2.35688
 Alpha virt. eigenvalues --    2.35978   2.36098   2.38923   2.40264   2.41259
 Alpha virt. eigenvalues --    2.42195   2.43169   2.44154   2.45371   2.46084
 Alpha virt. eigenvalues --    2.47201   2.49167   2.49622   2.51174   2.54099
 Alpha virt. eigenvalues --    2.57315   2.58365   2.61888   2.63241   2.64107
 Alpha virt. eigenvalues --    2.67127   2.68175   2.71776   2.73352   2.73474
 Alpha virt. eigenvalues --    2.75815   2.77410   2.80796   2.82634   2.85354
 Alpha virt. eigenvalues --    2.87137   2.89441   2.92178   2.93739   2.94867
 Alpha virt. eigenvalues --    2.97869   2.99094   3.00960   3.02677   3.05807
 Alpha virt. eigenvalues --    3.06402   3.07703   3.09315   3.13762   3.17093
 Alpha virt. eigenvalues --    3.17589   3.19238   3.20046   3.21242   3.22334
 Alpha virt. eigenvalues --    3.24167   3.25050   3.26607   3.27420   3.37866
 Alpha virt. eigenvalues --    3.40355   3.46023   3.46902   3.56200   3.58183
 Alpha virt. eigenvalues --    3.59499   3.62406   3.67928   3.75494   3.78622
 Alpha virt. eigenvalues --    3.80005   3.81570   3.82569   3.83286   3.83898
 Alpha virt. eigenvalues --    3.84750   3.86481   3.87645   3.89820   3.91558
 Alpha virt. eigenvalues --    3.97645   4.59389   4.63170   4.74472   4.82572
 Alpha virt. eigenvalues --    4.88928   4.92582   4.93409   5.07840   5.10766
 Alpha virt. eigenvalues --    5.17766
          Condensed to atoms (all electrons):
               1          2          3          4          5          6
     1  C    5.004768   0.414473   0.411714   0.337355  -0.056085   0.003801
     2  H    0.414473   0.587507  -0.028296  -0.046308  -0.004587   0.000106
     3  H    0.411714  -0.028296   0.572983  -0.038988   0.003071  -0.000108
     4  C    0.337355  -0.046308  -0.038988   4.952603   0.351934  -0.042765
     5  C   -0.056085  -0.004587   0.003071   0.351934   4.891804   0.407087
     6  H    0.003801   0.000106  -0.000108  -0.042765   0.407087   0.568858
     7  H   -0.003698   0.002378  -0.000034  -0.041506   0.397495  -0.026764
     8  H    0.000011  -0.000489  -0.000005  -0.045679   0.400946  -0.027466
     9  C   -0.047991   0.002531  -0.001860   0.697840  -0.046054  -0.002890
    10  H    0.003272  -0.000118   0.000031  -0.037842  -0.006525   0.002385
    11  C   -0.007749   0.000160  -0.002811  -0.050271   0.003364   0.000132
    12  H    0.000310  -0.000013  -0.000067  -0.000247  -0.000095  -0.000006
    13  H    0.000152   0.000017   0.000184  -0.000627  -0.000106  -0.000006
    14  H   -0.001745   0.000030  -0.001657  -0.000691   0.000109   0.000005
    15  C    0.000587  -0.000015   0.000200  -0.000018  -0.000000  -0.000000
    16  H   -0.000040   0.000000   0.000022   0.000001  -0.000000   0.000000
    17  H    0.000130  -0.000002  -0.000135  -0.000005   0.000000  -0.000000
    18  H   -0.000302  -0.000016  -0.000131  -0.000011  -0.000000   0.000000
    19  C   -0.004325   0.000787   0.001388   0.000041  -0.000003   0.000000
    20  C   -0.000099  -0.000004  -0.000043   0.000001  -0.000000   0.000000
    21  H   -0.000005   0.000000   0.000002   0.000000  -0.000000   0.000000
    22  H    0.000024  -0.000002  -0.000007  -0.000000   0.000000  -0.000000
    23  H   -0.000003   0.000003  -0.000002   0.000000  -0.000000   0.000000
    24  C   -0.061827  -0.000900  -0.000504   0.006443  -0.000149   0.000004
    25  H    0.000175   0.001011   0.000111  -0.000152   0.000010  -0.000000
    26  C    0.332330  -0.046074  -0.041801  -0.055544  -0.000661  -0.000109
    27  H   -0.042369   0.004477  -0.003118  -0.001813   0.000243  -0.000005
    28  H   -0.046841  -0.001931   0.004515  -0.002075  -0.000289  -0.000050
               7          8          9         10         11         12
     1  C   -0.003698   0.000011  -0.047991   0.003272  -0.007749   0.000310
     2  H    0.002378  -0.000489   0.002531  -0.000118   0.000160  -0.000013
     3  H   -0.000034  -0.000005  -0.001860   0.000031  -0.002811  -0.000067
     4  C   -0.041506  -0.045679   0.697840  -0.037842  -0.050271  -0.000247
     5  C    0.397495   0.400946  -0.046054  -0.006525   0.003364  -0.000095
     6  H   -0.026764  -0.027466  -0.002890   0.002385   0.000132  -0.000006
     7  H    0.591921  -0.037541  -0.000373   0.000216  -0.000105  -0.000004
     8  H   -0.037541   0.596034  -0.001011   0.000135  -0.000101   0.000017
     9  C   -0.000373  -0.001011   4.938971   0.404494   0.340494  -0.041805
    10  H    0.000216   0.000135   0.404494   0.558671  -0.041279  -0.001264
    11  C   -0.000105  -0.000101   0.340494  -0.041279   4.900974   0.402169
    12  H   -0.000004   0.000017  -0.041805  -0.001264   0.402169   0.586720
    13  H    0.000017  -0.000004  -0.041523  -0.001122   0.401144  -0.035462
    14  H    0.000002  -0.000003  -0.043903   0.003299   0.409079  -0.029956
    15  C    0.000000  -0.000000   0.000015  -0.000000  -0.000147  -0.000015
    16  H    0.000000  -0.000000   0.000000   0.000000   0.000003  -0.000000
    17  H   -0.000000   0.000000   0.000000  -0.000000  -0.000009   0.000000
    18  H   -0.000000   0.000000  -0.000045   0.000000   0.000074   0.000114
    19  C    0.000000   0.000000  -0.000001   0.000000   0.000013   0.000001
    20  C   -0.000000  -0.000000  -0.000000   0.000000  -0.000000  -0.000000
    21  H    0.000000   0.000000   0.000000   0.000000   0.000000  -0.000000
    22  H   -0.000000   0.000000   0.000000  -0.000000  -0.000000   0.000000
    23  H   -0.000000  -0.000000  -0.000000   0.000000   0.000000  -0.000000
    24  C    0.000004  -0.000111   0.000114   0.000002  -0.000031  -0.000009
    25  H   -0.000001   0.000015  -0.000002  -0.000000   0.000000   0.000000
    26  C    0.000086   0.000609  -0.004911  -0.000113   0.000577   0.000163
    27  H    0.000006  -0.000015   0.001406  -0.000046  -0.000082  -0.000140
    28  H    0.000058   0.000197   0.000760   0.000001  -0.000033  -0.000000
              13         14         15         16         17         18
     1  C    0.000152  -0.001745   0.000587  -0.000040   0.000130  -0.000302
     2  H    0.000017   0.000030  -0.000015   0.000000  -0.000002  -0.000016
     3  H    0.000184  -0.001657   0.000200   0.000022  -0.000135  -0.000131
     4  C   -0.000627  -0.000691  -0.000018   0.000001  -0.000005  -0.000011
     5  C   -0.000106   0.000109  -0.000000  -0.000000   0.000000  -0.000000
     6  H   -0.000006   0.000005  -0.000000   0.000000  -0.000000   0.000000
     7  H    0.000017   0.000002   0.000000   0.000000  -0.000000  -0.000000
     8  H   -0.000004  -0.000003  -0.000000  -0.000000   0.000000   0.000000
     9  C   -0.041523  -0.043903   0.000015   0.000000   0.000000  -0.000045
    10  H   -0.001122   0.003299  -0.000000   0.000000  -0.000000   0.000000
    11  C    0.401144   0.409079  -0.000147   0.000003  -0.000009   0.000074
    12  H   -0.035462  -0.029956  -0.000015  -0.000000   0.000000   0.000114
    13  H    0.583648  -0.027132   0.000004   0.000000  -0.000000  -0.000013
    14  H   -0.027132   0.577164  -0.000000  -0.000008   0.000079   0.000412
    15  C    0.000004  -0.000000   4.907254   0.399852   0.401208   0.407154
    16  H    0.000000  -0.000008   0.399852   0.584669  -0.035759  -0.026060
    17  H   -0.000000   0.000079   0.401208  -0.035759   0.587442  -0.028659
    18  H   -0.000013   0.000412   0.407154  -0.026060  -0.028659   0.568221
    19  C   -0.000000  -0.000026   0.350333  -0.043537  -0.043385  -0.037848
    20  C    0.000000   0.000000  -0.064931  -0.002223  -0.002632   0.003725
    21  H    0.000000  -0.000000  -0.001201   0.002766  -0.000476  -0.000031
    22  H   -0.000000  -0.000000  -0.001975  -0.000456   0.002756  -0.000068
    23  H   -0.000000  -0.000000   0.003785  -0.000053  -0.000032  -0.000113
    24  C    0.000002   0.000026  -0.044248  -0.000365  -0.000031  -0.003253
    25  H    0.000000  -0.000002   0.003528  -0.000121  -0.000121   0.000061
    26  C   -0.000037  -0.000737  -0.008144   0.000117   0.000367  -0.002069
    27  H    0.000037  -0.000475  -0.002693   0.000113  -0.000076  -0.001675
    28  H   -0.000000  -0.000010   0.000195   0.000021  -0.000014   0.000058
              19         20         21         22         23         24
     1  C   -0.004325  -0.000099  -0.000005   0.000024  -0.000003  -0.061827
     2  H    0.000787  -0.000004   0.000000  -0.000002   0.000003  -0.000900
     3  H    0.001388  -0.000043   0.000002  -0.000007  -0.000002  -0.000504
     4  C    0.000041   0.000001   0.000000  -0.000000   0.000000   0.006443
     5  C   -0.000003  -0.000000  -0.000000   0.000000  -0.000000  -0.000149
     6  H    0.000000   0.000000   0.000000  -0.000000   0.000000   0.000004
     7  H    0.000000  -0.000000   0.000000  -0.000000  -0.000000   0.000004
     8  H    0.000000  -0.000000   0.000000   0.000000  -0.000000  -0.000111
     9  C   -0.000001  -0.000000   0.000000   0.000000  -0.000000   0.000114
    10  H    0.000000   0.000000   0.000000  -0.000000   0.000000   0.000002
    11  C    0.000013  -0.000000   0.000000  -0.000000   0.000000  -0.000031
    12  H    0.000001  -0.000000  -0.000000   0.000000  -0.000000  -0.000009
    13  H   -0.000000   0.000000   0.000000  -0.000000  -0.000000   0.000002
    14  H   -0.000026   0.000000  -0.000000  -0.000000  -0.000000   0.000026
    15  C    0.350333  -0.064931  -0.001201  -0.001975   0.003785  -0.044248
    16  H   -0.043537  -0.002223   0.002766  -0.000456  -0.000053  -0.000365
    17  H   -0.043385  -0.002632  -0.000476   0.002756  -0.000032  -0.000031
    18  H   -0.037848   0.003725  -0.000031  -0.000068  -0.000113  -0.003253
    19  C    4.914192   0.353753  -0.044274  -0.043899  -0.041639   0.697734
    20  C    0.353753   4.900112   0.398811   0.398238   0.406218  -0.044415
    21  H   -0.044274   0.398811   0.593607  -0.037806  -0.026549  -0.001270
    22  H   -0.043899   0.398238  -0.037806   0.594542  -0.026703  -0.000422
    23  H   -0.041639   0.406218  -0.026549  -0.026703   0.566018  -0.002632
    24  C    0.697734  -0.044415  -0.001270  -0.000422  -0.002632   4.962747
    25  H   -0.038449  -0.006963   0.000187   0.000182   0.002335   0.403391
    26  C   -0.050100   0.003126  -0.000131  -0.000068   0.000148   0.338699
    27  H    0.000438   0.000051   0.000007  -0.000005   0.000007  -0.044060
    28  H    0.001583  -0.000094   0.000009  -0.000002  -0.000010  -0.041394
              25         26         27         28
     1  C    0.000175   0.332330  -0.042369  -0.046841
     2  H    0.001011  -0.046074   0.004477  -0.001931
     3  H    0.000111  -0.041801  -0.003118   0.004515
     4  C   -0.000152  -0.055544  -0.001813  -0.002075
     5  C    0.000010  -0.000661   0.000243  -0.000289
     6  H   -0.000000  -0.000109  -0.000005  -0.000050
     7  H   -0.000001   0.000086   0.000006   0.000058
     8  H    0.000015   0.000609  -0.000015   0.000197
     9  C   -0.000002  -0.004911   0.001406   0.000760
    10  H   -0.000000  -0.000113  -0.000046   0.000001
    11  C    0.000000   0.000577  -0.000082  -0.000033
    12  H    0.000000   0.000163  -0.000140  -0.000000
    13  H    0.000000  -0.000037   0.000037  -0.000000
    14  H   -0.000002  -0.000737  -0.000475  -0.000010
    15  C    0.003528  -0.008144  -0.002693   0.000195
    16  H   -0.000121   0.000117   0.000113   0.000021
    17  H   -0.000121   0.000367  -0.000076  -0.000014
    18  H    0.000061  -0.002069  -0.001675   0.000058
    19  C   -0.038449  -0.050100   0.000438   0.001583
    20  C   -0.006963   0.003126   0.000051  -0.000094
    21  H    0.000187  -0.000131   0.000007   0.000009
    22  H    0.000182  -0.000068  -0.000005  -0.000002
    23  H    0.002335   0.000148   0.000007  -0.000010
    24  C    0.403391   0.338699  -0.044060  -0.041394
    25  H    0.557389  -0.039113   0.003152  -0.003424
    26  C   -0.039113   4.979543   0.415850   0.413482
    27  H    0.003152   0.415850   0.575347  -0.028362
    28  H   -0.003424   0.413482  -0.028362   0.585267
 Mulliken charges:
               1
     1  C   -0.236021
     2  H    0.115272
     3  H    0.125346
     4  C    0.018322
     5  C   -0.341505
     6  H    0.117792
     7  H    0.117845
     8  H    0.114461
     9  C   -0.154256
    10  H    0.115801
    11  C   -0.355567
    12  H    0.119588
    13  H    0.120830
    14  H    0.116140
    15  C   -0.350727
    16  H    0.121058
    17  H    0.119352
    18  H    0.120474
    19  C    0.027222
    20  C   -0.342631
    21  H    0.116356
    22  H    0.115672
    23  H    0.119222
    24  C   -0.163543
    25  H    0.116803
    26  C   -0.235486
    27  H    0.123802
    28  H    0.118380
 Sum of Mulliken charges =  -0.00000
 Mulliken charges with hydrogens summed into heavy atoms:
               1
     1  C    0.004596
     4  C    0.018322
     5  C    0.008593
     9  C   -0.038454
    11  C    0.000991
    15  C    0.010156
    19  C    0.027222
    20  C    0.008618
    24  C   -0.046740
    26  C    0.006696
 Electronic spatial extent (au):  <R**2>=           2384.0060
 Charge=             -0.0000 electrons
 Dipole moment (field-independent basis, Debye):
    X=              0.3027    Y=              0.1253    Z=              0.0460  Tot=              0.3308
 Quadrupole moment (field-independent basis, Debye-Ang):
   XX=            -64.3024   YY=            -63.2901   ZZ=            -67.3956
   XY=              0.7521   XZ=              1.2367   YZ=             -0.3487
 Traceless Quadrupole moment (field-independent basis, Debye-Ang):
   XX=              0.6937   YY=              1.7059   ZZ=             -2.3996
   XY=              0.7521   XZ=              1.2367   YZ=             -0.3487
 Octapole moment (field-independent basis, Debye-Ang**2):
  XXX=              2.6682  YYY=             -2.9989  ZZZ=              0.9000  XYY=             -0.6415
  XXY=              4.0909  XXZ=             -2.0918  XZZ=              1.2120  YZZ=              1.4955
  YYZ=              0.6111  XYZ=             -0.3641
 Hexadecapole moment (field-independent basis, Debye-Ang**3):
 XXXX=          -2435.7164 YYYY=           -693.4924 ZZZZ=           -166.6415 XXXY=              2.3047
 XXXZ=             14.7514 YYYX=            -11.0526 YYYZ=             -1.4214 ZZZX=              2.8119
 ZZZY=             -0.6411 XXYY=           -520.1246 XXZZ=           -449.2340 YYZZ=           -138.3649
 XXYZ=             -4.2785 YYXZ=              0.5785 ZZXY=              5.9188
 N-N= 5.190879984412D+02 E-N=-1.942888736432D+03  KE= 3.887471642795D+02
 No NMR shielding tensors so no spin-rotation constants.
 Leave Link  601 at Fri Sep 17 15:09:50 2021, MaxMem=   524288000 cpu:               0.2 elap:               0.4
 (Enter /opt/gaussian/g16_legacy/l9999.exe)
 1\1\GINC-TRUENO93\FOpt\RMP2-FC\6-31G(d,p)\C10H18\JRAMOS\17-Sep-2021\0\
 \#p opt mp2/6-31g(d,p)\\Conformer number 2636. Energy MM = 23.242 kcal
 /mol\\0,1\C,-0.7218552389,-0.1874442709,0.9016335488\H,-0.5178235014,-
 0.1758327999,1.9762143374\H,-0.8006771468,0.8567785868,0.5952005576\C,
 -2.0042102727,-0.9380268681,0.6441827189\C,-2.2977360745,-2.0656263726
 ,1.5959249252\H,-3.1956473375,-2.6102561892,1.306696916\H,-2.436767202
 2,-1.6898676892,2.6119469252\H,-1.4677344752,-2.7748337937,1.630556251
 9\C,-2.8230299829,-0.6744493835,-0.3911978063\H,-3.709534346,-1.292659
 612,-0.5028638731\C,-2.6487561957,0.392970477,-1.4285915589\H,-2.59892
 71781,-0.0451185503,-2.4272412082\H,-3.495256549,1.0823132325,-1.42631
 54674\H,-1.7419639634,0.9740262808,-1.2766477628\C,1.8729688445,1.3970
 673341,-1.4794815924\H,2.6052970703,1.2418028482,-2.2749470895\H,1.725
 4546918,2.475748818,-1.3927566485\H,0.9310996163,0.9542907948,-1.79344
 80829\C,2.3798917303,0.8378170951,-0.1790461895\C,3.6599351386,1.45401
 04055,0.3141514969\H,4.4611309782,1.3226497108,-0.416686417\H,3.541846
 8579,2.5295108339,0.4643585906\H,3.9806603793,1.0106387106,1.255594725
 8\C,1.7691323777,-0.1390992547,0.517641026\H,2.223548555,-0.4425922002
 ,1.4574446256\C,0.4785101201,-0.8211041011,0.1726065034\H,0.2869623096
 ,-0.7950940755,-0.9008303717\H,0.5430807944,-1.8777199671,0.4458009188
 \\Version=EM64L-G16RevA.03\State=1-A\HF=-389.1567534\MP2=-390.5738646\
 RMSD=5.136e-09\RMSF=3.190e-06\Dipole=0.0649549,0.079688,-0.0542786\PG=
 C01 [X(C10H18)]\\@


 WE'RE IN THE POSITION OF A VISITOR FROM ANOTHER
 DIMENSION WHO COMES TO EARTH AND SEES A CHESS MATCH.
 ASSUMING HE KNOWS IT'S A GAME, HE'S GOT TWO PROBLEMS:
 FIRST, FIGURE OUT THE RULES, AND SECOND, FIGURE OUT HOW TO WIN.
 NINETY PERCENT OF SCIENCE (INCLUDING VIRTUALLY ALL OF CHEMISRY)
 IS IN THAT SECOND CATEGORY.  THEY'RE TRYING TO APPLY
 THE LAWS THAT ARE ALREADY KNOWN.

                     -- SHELDON GLASHOW, 1979
 Job cpu time:       0 days  0 hours 47 minutes 30.6 seconds.
 Elapsed time:       0 days  0 hours 47 minutes 33.4 seconds.
 File lengths (MBytes):  RWF=     32 Int=      0 D2E=      0 Chk=      7 Scr=      1
 Normal termination of Gaussian 16 at Fri Sep 17 15:09:50 2021.
