 Entering Gaussian System, Link 0=/opt/gaussian/g16_legacy/g16
 Input=01-IsoP_3138_gaussian.com
 Output=01-IsoP_3138_gaussian.log
 Initial command:
 /opt/gaussian/g16_legacy/l1.exe "/scratch-local/jramos/2661389/Gau-18232.inp" -scrdir="/scratch-local/jramos/2661389/"
 Entering Link 1 = /opt/gaussian/g16_legacy/l1.exe PID=     18233.
  
 Copyright (c) 1988,1990,1992,1993,1995,1998,2003,2009,2016,
            Gaussian, Inc.  All Rights Reserved.
  
 This is part of the Gaussian(R) 16 program.  It is based on
 the Gaussian(R) 09 system (copyright 2009, Gaussian, Inc.),
 the Gaussian(R) 03 system (copyright 2003, Gaussian, Inc.),
 the Gaussian(R) 98 system (copyright 1998, Gaussian, Inc.),
 the Gaussian(R) 94 system (copyright 1995, Gaussian, Inc.),
 the Gaussian 92(TM) system (copyright 1992, Gaussian, Inc.),
 the Gaussian 90(TM) system (copyright 1990, Gaussian, Inc.),
 the Gaussian 88(TM) system (copyright 1988, Gaussian, Inc.),
 the Gaussian 86(TM) system (copyright 1986, Carnegie Mellon
 University), and the Gaussian 82(TM) system (copyright 1983,
 Carnegie Mellon University). Gaussian is a federally registered
 trademark of Gaussian, Inc.
  
 This software contains proprietary and confidential information,
 including trade secrets, belonging to Gaussian, Inc.
  
 This software is provided under written license and may be
 used, copied, transmitted, or stored only in accord with that
 written license.
  
 The following legend is applicable only to US Government
 contracts under FAR:
  
                    RESTRICTED RIGHTS LEGEND
  
 Use, reproduction and disclosure by the US Government is
 subject to restrictions as set forth in subparagraphs (a)
 and (c) of the Commercial Computer Software - Restricted
 Rights clause in FAR 52.227-19.
  
 Gaussian, Inc.
 340 Quinnipiac St., Bldg. 40, Wallingford CT 06492
  
  
 ---------------------------------------------------------------
 Warning -- This program may not be used in any manner that
 competes with the business of Gaussian, Inc. or will provide
 assistance to any competitor of Gaussian, Inc.  The licensee
 of this program is prohibited from giving any competitor of
 Gaussian, Inc. access to this program.  By using this program,
 the user acknowledges that Gaussian, Inc. is engaged in the
 business of creating and licensing software in the field of
 computational chemistry and represents and warrants to the
 licensee that it is not a competitor of Gaussian, Inc. and that
 it will not use this program in any manner prohibited above.
 ---------------------------------------------------------------
  

 Cite this work as:
 Gaussian 16, Revision A.03,
 M. J. Frisch, G. W. Trucks, H. B. Schlegel, G. E. Scuseria, 
 M. A. Robb, J. R. Cheeseman, G. Scalmani, V. Barone, 
 G. A. Petersson, H. Nakatsuji, X. Li, M. Caricato, A. V. Marenich, 
 J. Bloino, B. G. Janesko, R. Gomperts, B. Mennucci, H. P. Hratchian, 
 J. V. Ortiz, A. F. Izmaylov, J. L. Sonnenberg, D. Williams-Young, 
 F. Ding, F. Lipparini, F. Egidi, J. Goings, B. Peng, A. Petrone, 
 T. Henderson, D. Ranasinghe, V. G. Zakrzewski, J. Gao, N. Rega, 
 G. Zheng, W. Liang, M. Hada, M. Ehara, K. Toyota, R. Fukuda, 
 J. Hasegawa, M. Ishida, T. Nakajima, Y. Honda, O. Kitao, H. Nakai, 
 T. Vreven, K. Throssell, J. A. Montgomery, Jr., J. E. Peralta, 
 F. Ogliaro, M. J. Bearpark, J. J. Heyd, E. N. Brothers, K. N. Kudin, 
 V. N. Staroverov, T. A. Keith, R. Kobayashi, J. Normand, 
 K. Raghavachari, A. P. Rendell, J. C. Burant, S. S. Iyengar, 
 J. Tomasi, M. Cossi, J. M. Millam, M. Klene, C. Adamo, R. Cammi, 
 J. W. Ochterski, R. L. Martin, K. Morokuma, O. Farkas, 
 J. B. Foresman, and D. J. Fox, Gaussian, Inc., Wallingford CT, 2016.
 
 ******************************************
 Gaussian 16:  EM64L-G16RevA.03 25-Dec-2016
                17-Sep-2021 
 ******************************************
 %chk=01-IsoP_3138_gaussian.chk
 %nproc=1
 Will use up to    1 processors via shared memory.
 %mem=4000Mb
 ---------------------
 #p opt mp2/6-31g(d,p)
 ---------------------
 1/18=20,19=15,38=1/1,3;
 2/9=110,12=2,17=6,18=5,40=1/2;
 3/5=1,6=6,7=101,11=9,25=1,30=1,71=1/1,2,3;
 4//1;
 5/5=2,38=5/2;
 8/6=4,10=2/1;
 9/15=2,16=-3/6;
 10/5=1/2;
 6/7=2,8=2,9=2,10=2/1;
 7/12=2/1,2,3,16;
 1/18=20,19=15/3(2);
 2/9=110/2;
 99//99;
 2/9=110/2;
 3/5=1,6=6,7=101,11=9,25=1,30=1,71=1/1,2,3;
 4/5=5,16=3,69=1/1;
 5/5=2,38=5/2;
 8/6=4,10=2/1;
 9/15=2,16=-3/6;
 10/5=1/2;
 7/12=2/1,2,3,16;
 1/18=20,19=15/3(-8);
 2/9=110/2;
 6/7=2,8=2,9=2,10=2/1;
 99//99;
 Leave Link    1 at Fri Sep 17 14:58:04 2021, MaxMem=   524288000 cpu:               0.0 elap:               0.1
 (Enter /opt/gaussian/g16_legacy/l101.exe)
 --------------------------------------------------
 Conformer number 3138. Energy MM = 23.242 kcal/mol
 --------------------------------------------------
 Symbolic Z-matrix:
 Charge =  0 Multiplicity = 1
 C                    -0.9621   -0.2376    0.6829 
 H                    -0.7573    0.8365    0.7659 
 H                    -1.0825   -0.5821    1.7189 
 C                    -2.2547   -0.4768   -0.07 
 C                    -2.9858   -1.7412    0.3021 
 H                    -2.3614   -2.6175    0.1016 
 H                    -3.2426   -1.7319    1.3664 
 H                    -3.9168   -1.8632   -0.2617 
 C                    -2.7636    0.3623   -0.9938 
 H                    -3.7141    0.1078   -1.462 
 C                    -2.1617    1.6364   -1.4966 
 H                    -2.1257    1.6154   -2.5907 
 H                    -1.143     1.807    -1.1415 
 H                    -2.7813    2.4854   -1.1926 
 C                     2.5263    1.0442   -0.7159 
 H                     3.3121    0.7349   -1.4126 
 H                     2.7313    2.0728   -0.4 
 H                     1.5805    1.0645   -1.2621 
 C                     2.507     0.1317    0.4794 
 C                     3.7332    0.2245    1.3497 
 H                     4.6277   -0.0278    0.7708 
 H                     3.6885   -0.457     2.2057 
 H                     3.8458    1.2413    1.7399 
 C                     1.5006   -0.7059    0.7976 
 H                     1.5917   -1.3068    1.7025 
 C                     0.2283   -0.9468    0.0295 
 H                     0.3265   -0.6404   -1.017 
 H                     0.0532   -2.0298    0.0035 
 
 ITRead=  0  0  0  0  0  0  0  0  0  0  0  0  0  0  0  0  0  0  0  0
 ITRead=  0  0  0  0  0  0  0  0
 MicOpt= -1 -1 -1 -1 -1 -1 -1 -1 -1 -1 -1 -1 -1 -1 -1 -1 -1 -1 -1 -1
 MicOpt= -1 -1 -1 -1 -1 -1 -1 -1
 NAtoms=     28 NQM=       28 NQMF=       0 NMMI=      0 NMMIF=      0
                NMic=       0 NMicF=      0.
                    Isotopes and Nuclear Properties:
 (Nuclear quadrupole moments (NQMom) in fm**2, nuclear magnetic moments (NMagM)
  in nuclear magnetons)

  Atom         1           2           3           4           5           6           7           8           9          10
 IAtWgt=          12           1           1          12          12           1           1           1          12           1
 AtmWgt=  12.0000000   1.0078250   1.0078250  12.0000000  12.0000000   1.0078250   1.0078250   1.0078250  12.0000000   1.0078250
 NucSpn=           0           1           1           0           0           1           1           1           0           1
 AtZEff=  -0.0000000  -0.0000000  -0.0000000  -0.0000000  -0.0000000  -0.0000000  -0.0000000  -0.0000000  -0.0000000  -0.0000000
 NQMom=    0.0000000   0.0000000   0.0000000   0.0000000   0.0000000   0.0000000   0.0000000   0.0000000   0.0000000   0.0000000
 NMagM=    0.0000000   2.7928460   2.7928460   0.0000000   0.0000000   2.7928460   2.7928460   2.7928460   0.0000000   2.7928460
 AtZNuc=   6.0000000   1.0000000   1.0000000   6.0000000   6.0000000   1.0000000   1.0000000   1.0000000   6.0000000   1.0000000

  Atom        11          12          13          14          15          16          17          18          19          20
 IAtWgt=          12           1           1           1          12           1           1           1          12          12
 AtmWgt=  12.0000000   1.0078250   1.0078250   1.0078250  12.0000000   1.0078250   1.0078250   1.0078250  12.0000000  12.0000000
 NucSpn=           0           1           1           1           0           1           1           1           0           0
 AtZEff=  -0.0000000  -0.0000000  -0.0000000  -0.0000000  -0.0000000  -0.0000000  -0.0000000  -0.0000000  -0.0000000  -0.0000000
 NQMom=    0.0000000   0.0000000   0.0000000   0.0000000   0.0000000   0.0000000   0.0000000   0.0000000   0.0000000   0.0000000
 NMagM=    0.0000000   2.7928460   2.7928460   2.7928460   0.0000000   2.7928460   2.7928460   2.7928460   0.0000000   0.0000000
 AtZNuc=   6.0000000   1.0000000   1.0000000   1.0000000   6.0000000   1.0000000   1.0000000   1.0000000   6.0000000   6.0000000

  Atom        21          22          23          24          25          26          27          28
 IAtWgt=           1           1           1          12           1          12           1           1
 AtmWgt=   1.0078250   1.0078250   1.0078250  12.0000000   1.0078250  12.0000000   1.0078250   1.0078250
 NucSpn=           1           1           1           0           1           0           1           1
 AtZEff=  -0.0000000  -0.0000000  -0.0000000  -0.0000000  -0.0000000  -0.0000000  -0.0000000  -0.0000000
 NQMom=    0.0000000   0.0000000   0.0000000   0.0000000   0.0000000   0.0000000   0.0000000   0.0000000
 NMagM=    2.7928460   2.7928460   2.7928460   0.0000000   2.7928460   0.0000000   2.7928460   2.7928460
 AtZNuc=   1.0000000   1.0000000   1.0000000   6.0000000   1.0000000   6.0000000   1.0000000   1.0000000
 Leave Link  101 at Fri Sep 17 14:58:04 2021, MaxMem=   524288000 cpu:               0.1 elap:               0.1
 (Enter /opt/gaussian/g16_legacy/l103.exe)

 GradGradGradGradGradGradGradGradGradGradGradGradGradGradGradGradGradGrad
 Berny optimization.
 Initialization pass.
                           ----------------------------
                           !    Initial Parameters    !
                           ! (Angstroms and Degrees)  !
 --------------------------                            --------------------------
 ! Name  Definition              Value          Derivative Info.                !
 --------------------------------------------------------------------------------
 ! R1    R(1,2)                  1.0966         estimate D2E/DX2                !
 ! R2    R(1,3)                  1.0984         estimate D2E/DX2                !
 ! R3    R(1,4)                  1.5149         estimate D2E/DX2                !
 ! R4    R(1,26)                 1.532          estimate D2E/DX2                !
 ! R5    R(4,5)                  1.5072         estimate D2E/DX2                !
 ! R6    R(4,9)                  1.3478         estimate D2E/DX2                !
 ! R7    R(5,6)                  1.0945         estimate D2E/DX2                !
 ! R8    R(5,7)                  1.0949         estimate D2E/DX2                !
 ! R9    R(5,8)                  1.0952         estimate D2E/DX2                !
 ! R10   R(9,10)                 1.0897         estimate D2E/DX2                !
 ! R11   R(9,11)                 1.4961         estimate D2E/DX2                !
 ! R12   R(11,12)                1.0949         estimate D2E/DX2                !
 ! R13   R(11,13)                1.0922         estimate D2E/DX2                !
 ! R14   R(11,14)                1.0941         estimate D2E/DX2                !
 ! R15   R(15,16)                1.0948         estimate D2E/DX2                !
 ! R16   R(15,17)                1.0954         estimate D2E/DX2                !
 ! R17   R(15,18)                1.0924         estimate D2E/DX2                !
 ! R18   R(15,19)                1.5039         estimate D2E/DX2                !
 ! R19   R(19,20)                1.5065         estimate D2E/DX2                !
 ! R20   R(19,24)                1.3475         estimate D2E/DX2                !
 ! R21   R(20,21)                1.0949         estimate D2E/DX2                !
 ! R22   R(20,22)                1.0951         estimate D2E/DX2                !
 ! R23   R(20,23)                1.0949         estimate D2E/DX2                !
 ! R24   R(24,25)                1.0901         estimate D2E/DX2                !
 ! R25   R(24,26)                1.5056         estimate D2E/DX2                !
 ! R26   R(26,27)                1.0948         estimate D2E/DX2                !
 ! R27   R(26,28)                1.0974         estimate D2E/DX2                !
 ! A1    A(2,1,3)              104.8499         estimate D2E/DX2                !
 ! A2    A(2,1,4)              110.5872         estimate D2E/DX2                !
 ! A3    A(2,1,26)             109.9133         estimate D2E/DX2                !
 ! A4    A(3,1,4)              109.0088         estimate D2E/DX2                !
 ! A5    A(3,1,26)             110.0147         estimate D2E/DX2                !
 ! A6    A(4,1,26)             112.2065         estimate D2E/DX2                !
 ! A7    A(1,4,5)              115.0655         estimate D2E/DX2                !
 ! A8    A(1,4,9)              124.37           estimate D2E/DX2                !
 ! A9    A(5,4,9)              120.5541         estimate D2E/DX2                !
 ! A10   A(4,5,6)              110.4689         estimate D2E/DX2                !
 ! A11   A(4,5,7)              110.2813         estimate D2E/DX2                !
 ! A12   A(4,5,8)              112.2528         estimate D2E/DX2                !
 ! A13   A(6,5,7)              108.5826         estimate D2E/DX2                !
 ! A14   A(6,5,8)              107.5449         estimate D2E/DX2                !
 ! A15   A(7,5,8)              107.576          estimate D2E/DX2                !
 ! A16   A(4,9,10)             118.5844         estimate D2E/DX2                !
 ! A17   A(4,9,11)             127.4909         estimate D2E/DX2                !
 ! A18   A(10,9,11)            113.9169         estimate D2E/DX2                !
 ! A19   A(9,11,12)            109.4337         estimate D2E/DX2                !
 ! A20   A(9,11,13)            113.5142         estimate D2E/DX2                !
 ! A21   A(9,11,14)            109.8528         estimate D2E/DX2                !
 ! A22   A(12,11,13)           107.2901         estimate D2E/DX2                !
 ! A23   A(12,11,14)           108.1284         estimate D2E/DX2                !
 ! A24   A(13,11,14)           108.4599         estimate D2E/DX2                !
 ! A25   A(16,15,17)           108.3306         estimate D2E/DX2                !
 ! A26   A(16,15,18)           107.9695         estimate D2E/DX2                !
 ! A27   A(16,15,19)           110.0953         estimate D2E/DX2                !
 ! A28   A(17,15,18)           106.7855         estimate D2E/DX2                !
 ! A29   A(17,15,19)           110.0567         estimate D2E/DX2                !
 ! A30   A(18,15,19)           113.4263         estimate D2E/DX2                !
 ! A31   A(15,19,20)           114.2879         estimate D2E/DX2                !
 ! A32   A(15,19,24)           125.06           estimate D2E/DX2                !
 ! A33   A(20,19,24)           120.6492         estimate D2E/DX2                !
 ! A34   A(19,20,21)           110.2006         estimate D2E/DX2                !
 ! A35   A(19,20,22)           112.3344         estimate D2E/DX2                !
 ! A36   A(19,20,23)           110.2908         estimate D2E/DX2                !
 ! A37   A(21,20,22)           107.6514         estimate D2E/DX2                !
 ! A38   A(21,20,23)           108.5655         estimate D2E/DX2                !
 ! A39   A(22,20,23)           107.6717         estimate D2E/DX2                !
 ! A40   A(19,24,25)           118.4428         estimate D2E/DX2                !
 ! A41   A(19,24,26)           127.6001         estimate D2E/DX2                !
 ! A42   A(25,24,26)           113.9497         estimate D2E/DX2                !
 ! A43   A(1,26,24)            111.4062         estimate D2E/DX2                !
 ! A44   A(1,26,27)            110.3537         estimate D2E/DX2                !
 ! A45   A(1,26,28)            110.059          estimate D2E/DX2                !
 ! A46   A(24,26,27)           111.5349         estimate D2E/DX2                !
 ! A47   A(24,26,28)           107.7484         estimate D2E/DX2                !
 ! A48   A(27,26,28)           105.5368         estimate D2E/DX2                !
 ! D1    D(2,1,4,5)           -151.4168         estimate D2E/DX2                !
 ! D2    D(2,1,4,9)             27.4141         estimate D2E/DX2                !
 ! D3    D(3,1,4,5)            -36.6477         estimate D2E/DX2                !
 ! D4    D(3,1,4,9)            142.1832         estimate D2E/DX2                !
 ! D5    D(26,1,4,5)            85.4684         estimate D2E/DX2                !
 ! D6    D(26,1,4,9)           -95.7008         estimate D2E/DX2                !
 ! D7    D(2,1,26,24)           56.9437         estimate D2E/DX2                !
 ! D8    D(2,1,26,27)          -67.5248         estimate D2E/DX2                !
 ! D9    D(2,1,26,28)          176.3968         estimate D2E/DX2                !
 ! D10   D(3,1,26,24)          -58.0212         estimate D2E/DX2                !
 ! D11   D(3,1,26,27)          177.5103         estimate D2E/DX2                !
 ! D12   D(3,1,26,28)           61.4319         estimate D2E/DX2                !
 ! D13   D(4,1,26,24)         -179.563          estimate D2E/DX2                !
 ! D14   D(4,1,26,27)           55.9685         estimate D2E/DX2                !
 ! D15   D(4,1,26,28)          -60.11           estimate D2E/DX2                !
 ! D16   D(1,4,5,6)            -60.5332         estimate D2E/DX2                !
 ! D17   D(1,4,5,7)             59.5044         estimate D2E/DX2                !
 ! D18   D(1,4,5,8)            179.441          estimate D2E/DX2                !
 ! D19   D(9,4,5,6)            120.5874         estimate D2E/DX2                !
 ! D20   D(9,4,5,7)           -119.375          estimate D2E/DX2                !
 ! D21   D(9,4,5,8)              0.5616         estimate D2E/DX2                !
 ! D22   D(1,4,9,10)          -178.6028         estimate D2E/DX2                !
 ! D23   D(1,4,9,11)             2.4803         estimate D2E/DX2                !
 ! D24   D(5,4,9,10)             0.1674         estimate D2E/DX2                !
 ! D25   D(5,4,9,11)          -178.7495         estimate D2E/DX2                !
 ! D26   D(4,9,11,12)          127.7486         estimate D2E/DX2                !
 ! D27   D(4,9,11,13)            7.9323         estimate D2E/DX2                !
 ! D28   D(4,9,11,14)         -113.6845         estimate D2E/DX2                !
 ! D29   D(10,9,11,12)         -51.211          estimate D2E/DX2                !
 ! D30   D(10,9,11,13)        -171.0273         estimate D2E/DX2                !
 ! D31   D(10,9,11,14)          67.3558         estimate D2E/DX2                !
 ! D32   D(16,15,19,20)         66.5604         estimate D2E/DX2                !
 ! D33   D(16,15,19,24)       -114.0587         estimate D2E/DX2                !
 ! D34   D(17,15,19,20)        -52.7854         estimate D2E/DX2                !
 ! D35   D(17,15,19,24)        126.5955         estimate D2E/DX2                !
 ! D36   D(18,15,19,20)       -172.3392         estimate D2E/DX2                !
 ! D37   D(18,15,19,24)          7.0417         estimate D2E/DX2                !
 ! D38   D(15,19,20,21)        -59.5968         estimate D2E/DX2                !
 ! D39   D(15,19,20,22)       -179.6276         estimate D2E/DX2                !
 ! D40   D(15,19,20,23)         60.2538         estimate D2E/DX2                !
 ! D41   D(24,19,20,21)        120.9922         estimate D2E/DX2                !
 ! D42   D(24,19,20,22)          0.9615         estimate D2E/DX2                !
 ! D43   D(24,19,20,23)       -119.1572         estimate D2E/DX2                !
 ! D44   D(15,19,24,25)       -178.8302         estimate D2E/DX2                !
 ! D45   D(15,19,24,26)          2.227          estimate D2E/DX2                !
 ! D46   D(20,19,24,25)          0.5139         estimate D2E/DX2                !
 ! D47   D(20,19,24,26)       -178.429          estimate D2E/DX2                !
 ! D48   D(19,24,26,1)        -103.3741         estimate D2E/DX2                !
 ! D49   D(19,24,26,27)         20.4275         estimate D2E/DX2                !
 ! D50   D(19,24,26,28)        135.8096         estimate D2E/DX2                !
 ! D51   D(25,24,26,1)          77.643          estimate D2E/DX2                !
 ! D52   D(25,24,26,27)       -158.5553         estimate D2E/DX2                !
 ! D53   D(25,24,26,28)        -43.1732         estimate D2E/DX2                !
 --------------------------------------------------------------------------------
 Trust Radius=3.00D-01 FncErr=1.00D-07 GrdErr=1.00D-07 EigMax=2.50D+02 EigMin=1.00D-04
 Number of steps in this run=    138 maximum allowed number of steps=    168.
 GradGradGradGradGradGradGradGradGradGradGradGradGradGradGradGradGradGrad

 Leave Link  103 at Fri Sep 17 14:58:04 2021, MaxMem=   524288000 cpu:               0.0 elap:               0.1
 (Enter /opt/gaussian/g16_legacy/l202.exe)
                          Input orientation:                          
 ---------------------------------------------------------------------
 Center     Atomic      Atomic             Coordinates (Angstroms)
 Number     Number       Type             X           Y           Z
 ---------------------------------------------------------------------
      1          6           0       -0.962100   -0.237600    0.682900
      2          1           0       -0.757300    0.836500    0.765900
      3          1           0       -1.082500   -0.582100    1.718900
      4          6           0       -2.254700   -0.476800   -0.070000
      5          6           0       -2.985800   -1.741200    0.302100
      6          1           0       -2.361400   -2.617500    0.101600
      7          1           0       -3.242600   -1.731900    1.366400
      8          1           0       -3.916800   -1.863200   -0.261700
      9          6           0       -2.763600    0.362300   -0.993800
     10          1           0       -3.714100    0.107800   -1.462000
     11          6           0       -2.161700    1.636400   -1.496600
     12          1           0       -2.125700    1.615400   -2.590700
     13          1           0       -1.143000    1.807000   -1.141500
     14          1           0       -2.781300    2.485400   -1.192600
     15          6           0        2.526300    1.044200   -0.715900
     16          1           0        3.312100    0.734900   -1.412600
     17          1           0        2.731300    2.072800   -0.400000
     18          1           0        1.580500    1.064500   -1.262100
     19          6           0        2.507000    0.131700    0.479400
     20          6           0        3.733200    0.224500    1.349700
     21          1           0        4.627700   -0.027800    0.770800
     22          1           0        3.688500   -0.457000    2.205700
     23          1           0        3.845800    1.241300    1.739900
     24          6           0        1.500600   -0.705900    0.797600
     25          1           0        1.591700   -1.306800    1.702500
     26          6           0        0.228300   -0.946800    0.029500
     27          1           0        0.326500   -0.640400   -1.017000
     28          1           0        0.053200   -2.029800    0.003500
 ---------------------------------------------------------------------
                    Distance matrix (angstroms):
                    1          2          3          4          5
     1  C    0.000000
     2  H    1.096596   0.000000
     3  H    1.098395   1.739652   0.000000
     4  C    1.514889   2.160021   2.141332   0.000000
     5  C    2.549742   3.438875   2.640717   1.507207   0.000000
     6  H    2.821325   3.865818   2.897257   2.150216   1.094521
     7  H    2.810834   3.624085   2.472312   2.148131   1.094882
     8  H    3.502156   4.280979   3.687445   2.172885   1.095224
     9  C    2.533102   2.710470   3.328172   1.347766   2.480613
    10  H    3.506195   3.773223   4.185619   2.099826   2.657305
    11  C    3.114665   2.780483   4.052882   2.551363   3.914415
    12  H    3.937516   3.707555   4.948730   3.278394   4.513848
    13  H    2.746188   2.174583   3.727378   2.756761   4.250837
    14  H    3.773820   3.263613   4.557665   3.211256   4.487772
    15  C    3.970968   3.608448   4.647208   5.058516   6.259235
    16  H    4.858566   4.616947   5.554574   5.853209   6.981032
    17  H    4.489078   3.880476   5.107181   5.609773   6.908312
    18  H    3.455909   3.103237   4.323103   4.301798   5.582989
    19  C    3.494632   3.351788   3.863985   4.831759   5.806035
    20  C    4.764872   4.569459   4.896721   6.193732   7.078588
    21  H    5.594426   5.453922   5.814854   6.948091   7.817979
    22  H    4.898483   4.848846   4.797402   6.364026   7.058268
    23  H    5.140068   4.722401   5.254842   6.591184   7.591662
    24  C    2.509453   2.734614   2.745273   3.861022   4.630891
    25  H    2.950367   3.314929   2.770705   4.315721   4.806592
    26  C    1.531975   2.166530   2.169165   2.529049   3.322021
    27  H    2.170806   2.556284   3.077959   2.754300   3.731369
    28  H    2.168963   3.074710   2.515601   2.782735   3.067242
                    6          7          8          9         10
     6  H    0.000000
     7  H    1.777785   0.000000
     8  H    1.766416   1.767058   0.000000
     9  C    3.200137   3.191498   2.611262   0.000000
    10  H    3.420804   3.406854   2.316603   1.089693   0.000000
    11  C    4.548603   4.550885   4.105186   1.496136   2.178936
    12  H    5.022099   5.301936   4.553344   2.127737   2.463704
    13  H    4.754576   4.818889   4.683843   2.176079   3.098476
    14  H    5.281180   4.954483   4.589799   2.132461   2.568204
    15  C    6.161653   6.732229   7.083277   5.340904   6.354219
    16  H    6.761656   7.534722   7.767348   6.101504   7.054302
    17  H    6.941622   7.299547   7.727125   5.785528   6.821455
    18  H    5.563756   6.163697   6.308132   4.408659   5.384053
    19  C    5.603762   6.108819   6.767131   5.477474   6.517031
    20  C    6.839508   7.244968   8.091823   6.907922   7.961253
    21  H    7.483441   8.074671   8.800184   7.609028   8.636516
    22  H    6.759903   7.097178   8.118254   7.248286   8.280671
    23  H    7.490240   7.695767   8.596644   7.206242   8.287887
    24  C    4.365051   4.886119   5.640007   4.746953   5.741167
    25  H    4.461817   4.864579   5.874626   5.387445   6.337718
    26  C    3.082691   3.801425   4.255166   3.422331   4.345028
    27  H    3.519232   4.428368   4.480102   3.248794   4.133313
    28  H    2.487028   3.578902   3.982334   3.827677   4.572699
                   11         12         13         14         15
    11  C    0.000000
    12  H    1.094894   0.000000
    13  H    1.092223   1.761417   0.000000
    14  H    1.094130   1.772398   1.773940   0.000000
    15  C    4.789315   5.047995   3.771838   5.520409   0.000000
    16  H    5.548175   5.633193   4.590295   6.343672   1.094778
    17  H    5.033331   5.347787   3.953565   5.584551   1.095370
    18  H    3.792904   3.975498   2.825474   4.587928   1.092375
    19  C    5.288238   5.752286   4.330871   6.025081   1.503918
    20  C    6.696621   7.196392   5.699799   7.349399   2.528877
    21  H    7.348919   7.720635   6.350147   8.066250   2.788430
    22  H    7.232855   7.816983   6.298638   7.878101   3.484258
    23  H    6.835283   7.385991   5.788835   7.352945   2.794796
    24  C    4.915502   5.478965   4.130786   5.699119   2.530927
    25  H    5.743229   6.386696   5.026198   6.471902   3.499905
    26  C    3.835884   4.355644   3.291674   4.725592   3.130576
    27  H    3.406607   3.684895   2.857393   4.411336   2.787052
    28  H    4.538403   4.976441   4.178870   5.463705   4.010391
                   16         17         18         19         20
    16  H    0.000000
    17  H    1.775574   0.000000
    18  H    1.769103   1.756196   0.000000
    19  C    2.142825   2.142784   2.182050   0.000000
    20  C    2.840446   2.735227   3.487294   1.506519   0.000000
    21  H    2.660780   3.062618   3.822464   2.146561   1.094948
    22  H    3.828106   3.755768   4.334082   2.173159   1.095069
    23  H    3.237211   2.551994   3.764950   2.147663   1.094905
    24  C    3.200378   3.266503   2.717179   1.347466   2.480919
    25  H    4.102702   4.140156   3.796320   2.098340   2.656195
    26  C    3.797050   3.945562   2.746271   2.560868   3.924181
    27  H    3.310854   3.677663   2.130557   2.754983   4.237325
    28  H    4.502148   4.915929   3.675470   3.304497   4.520677
                   21         22         23         24         25
    21  H    0.000000
    22  H    1.767837   0.000000
    23  H    1.777959   1.768032   0.000000
    24  C    3.199889   2.613734   3.190530   0.000000
    25  H    3.423624   2.317745   3.402232   1.090057   0.000000
    26  C    4.555086   4.116884   4.560653   1.505576   2.188010
    27  H    4.698067   4.660738   4.850440   2.162308   3.072540
    28  H    5.052010   4.531974   5.300849   2.116193   2.403396
                   26         27         28
    26  C    0.000000
    27  H    1.094845   0.000000
    28  H    1.097372   1.745436   0.000000
 Stoichiometry    C10H18
 Framework group  C1[X(C10H18)]
 Deg. of freedom    78
 Full point group                 C1      NOp   1
 Largest Abelian subgroup         C1      NOp   1
 Largest concise Abelian subgroup C1      NOp   1
                         Standard orientation:                         
 ---------------------------------------------------------------------
 Center     Atomic      Atomic             Coordinates (Angstroms)
 Number     Number       Type             X           Y           Z
 ---------------------------------------------------------------------
      1          6           0       -0.793759   -0.586481    0.589173
      2          1           0       -0.484580    0.235350    1.246079
      3          1           0       -0.746026   -1.484348    1.220068
      4          6           0       -2.220952   -0.386960    0.122053
      5          6           0       -2.975639   -1.655065   -0.184591
      6          1           0       -2.478684   -2.212195   -0.984978
      7          1           0       -3.025301   -2.291658    0.704819
      8          1           0       -4.003276   -1.458193   -0.508193
      9          6           0       -2.820202    0.813904   -0.001636
     10          1           0       -3.860379    0.846708   -0.324726
     11          6           0       -2.215710    2.161904    0.234811
     12          1           0       -2.388672    2.797230   -0.639967
     13          1           0       -1.137429    2.131966    0.406171
     14          1           0       -2.690816    2.635779    1.099009
     15          6           0        2.466020    1.425953   -0.456074
     16          1           0        3.076462    1.626096   -1.342552
     17          1           0        2.815374    2.072768    0.355971
     18          1           0        1.439570    1.725954   -0.678973
     19          6           0        2.593417   -0.018240   -0.056268
     20          6           0        3.965098   -0.407990    0.429722
     21          1           0        4.709035   -0.227415   -0.353132
     22          1           0        4.023695   -1.466072    0.705776
     23          1           0        4.237055    0.181153    1.311633
     24          6           0        1.596290   -0.923621   -0.097379
     25          1           0        1.803944   -1.940175    0.236869
     26          6           0        0.185941   -0.715544   -0.581502
     27          1           0        0.111205    0.157015   -1.238572
     28          1           0       -0.084207   -1.577125   -1.205140
 ---------------------------------------------------------------------
 Rotational constants (GHZ):           2.2180591           0.5802316           0.4854219
 Leave Link  202 at Fri Sep 17 14:58:04 2021, MaxMem=   524288000 cpu:               0.0 elap:               0.1
 (Enter /opt/gaussian/g16_legacy/l301.exe)
 Standard basis: 6-31G(d,p) (6D, 7F)
 Ernie: Thresh=  0.10000D-02 Tol=  0.10000D-05 Strict=F.
 There are   240 symmetry adapted cartesian basis functions of A   symmetry.
 There are   240 symmetry adapted basis functions of A   symmetry.
   240 basis functions,   406 primitive gaussians,   240 cartesian basis functions
    39 alpha electrons       39 beta electrons
       nuclear repulsion energy       516.4329543583 Hartrees.
 IExCor=    0 DFT=F Ex=HF Corr=None ExCW=0 ScaHFX=  1.000000
 ScaDFX=  1.000000  1.000000  1.000000  1.000000 ScalE2=  1.000000  1.000000
 IRadAn=      5 IRanWt=     -1 IRanGd=            0 ICorTp=0 IEmpDi=  4
 NAtoms=   28 NActive=   28 NUniq=   28 SFac= 1.00D+00 NAtFMM=   60 NAOKFM=F Big=F
 Integral buffers will be    131072 words long.
 Raffenetti 1 integral format.
 Two-electron integral symmetry is turned on.
 Leave Link  301 at Fri Sep 17 14:58:04 2021, MaxMem=   524288000 cpu:               0.0 elap:               0.1
 (Enter /opt/gaussian/g16_legacy/l302.exe)
 NPDir=0 NMtPBC=     1 NCelOv=     1 NCel=       1 NClECP=     1 NCelD=      1
         NCelK=      1 NCelE2=     1 NClLst=     1 CellRange=     0.0.
 One-electron integrals computed using PRISM.
 One-electron integral symmetry used in STVInt
 NBasis=   240 RedAO= T EigKep=  2.10D-03  NBF=   240
 NBsUse=   240 1.00D-06 EigRej= -1.00D+00 NBFU=   240
 Leave Link  302 at Fri Sep 17 14:58:05 2021, MaxMem=   524288000 cpu:               0.2 elap:               0.4
 (Enter /opt/gaussian/g16_legacy/l303.exe)
 DipDrv:  MaxL=1.
 Leave Link  303 at Fri Sep 17 14:58:05 2021, MaxMem=   524288000 cpu:               0.0 elap:               0.1
 (Enter /opt/gaussian/g16_legacy/l401.exe)
 ExpMin= 1.61D-01 ExpMax= 3.05D+03 ExpMxC= 4.57D+02 IAcc=3 IRadAn=         5 AccDes= 0.00D+00
 Harris functional with IExCor=  205 and IRadAn=       5 diagonalized for initial guess.
 HarFok:  IExCor=  205 AccDes= 0.00D+00 IRadAn=         5 IDoV= 1 UseB2=F ITyADJ=14
 ICtDFT=  3500011 ScaDFX=  1.000000  1.000000  1.000000  1.000000
 FoFCou: FMM=F IPFlag=           0 FMFlag=      100000 FMFlg1=           0
         NFxFlg=           0 DoJE=T BraDBF=F KetDBF=T FulRan=T
         wScrn=  0.000000 ICntrl=       500 IOpCl=  0 I1Cent=   200000004 NGrid=           0
         NMat0=    1 NMatS0=      1 NMatT0=    0 NMatD0=    1 NMtDS0=    0 NMtDT0=    0
 Petite list used in FoFCou.
 Harris En= -390.109884015880    
 JPrj=0 DoOrth=F DoCkMO=F.
 Leave Link  401 at Fri Sep 17 14:58:12 2021, MaxMem=   524288000 cpu:               6.4 elap:               6.6
 (Enter /opt/gaussian/g16_legacy/l502.exe)
 Keep R1 ints in memory in canonical form, NReq=425198025.
 FoFCou: FMM=F IPFlag=           0 FMFlag=           0 FMFlg1=           0
         NFxFlg=           0 DoJE=F BraDBF=F KetDBF=F FulRan=T
         wScrn=  0.000000 ICntrl=       600 IOpCl=  0 I1Cent=           0 NGrid=           0
         NMat0=    1 NMatS0=  28920 NMatT0=    0 NMatD0=    1 NMtDS0=    0 NMtDT0=    0
 Symmetry not used in FoFCou.
 Two-electron integral symmetry not used.
 Closed shell SCF:
 Using DIIS extrapolation, IDIIS=  1040.
 NGot=   524288000 LenX=   105970886 LenY=   105912845
 Requested convergence on RMS density matrix=1.00D-08 within 128 cycles.
 Requested convergence on MAX density matrix=1.00D-06.
 Requested convergence on             energy=1.00D-06.
 No special actions if energy rises.

 Cycle   1  Pass 1  IDiag  1:
 E= -388.533197140759    
 DIIS: error= 5.21D-02 at cycle   1 NSaved=   1.
 NSaved= 1 IEnMin= 1 EnMin= -388.533197140759     IErMin= 1 ErrMin= 5.21D-02
 ErrMax= 5.21D-02  0.00D+00 EMaxC= 1.00D-01 BMatC= 8.07D-01 BMatP= 8.07D-01
 IDIUse=3 WtCom= 4.79D-01 WtEn= 5.21D-01
 Coeff-Com:  0.100D+01
 Coeff-En:   0.100D+01
 Coeff:      0.100D+01
 Gap=     0.508 Goal=   None    Shift=    0.000
 GapD=    0.508 DampG=2.000 DampE=0.500 DampFc=1.0000 IDamp=-1.
 RMSDP=4.00D-03 MaxDP=1.14D-01              OVMax= 1.33D-01

 Cycle   2  Pass 1  IDiag  1:
 E= -389.073879356594     Delta-E=       -0.540682215835 Rises=F Damp=F
 DIIS: error= 1.59D-02 at cycle   2 NSaved=   2.
 NSaved= 2 IEnMin= 2 EnMin= -389.073879356594     IErMin= 2 ErrMin= 1.59D-02
 ErrMax= 1.59D-02  0.00D+00 EMaxC= 1.00D-01 BMatC= 8.66D-02 BMatP= 8.07D-01
 IDIUse=3 WtCom= 8.41D-01 WtEn= 1.59D-01
 Coeff-Com:  0.183D+00 0.817D+00
 Coeff-En:   0.000D+00 0.100D+01
 Coeff:      0.154D+00 0.846D+00
 Gap=     0.549 Goal=   None    Shift=    0.000
 RMSDP=1.63D-03 MaxDP=3.04D-02 DE=-5.41D-01 OVMax= 4.61D-02

 Cycle   3  Pass 1  IDiag  1:
 E= -389.151432753202     Delta-E=       -0.077553396609 Rises=F Damp=F
 DIIS: error= 3.43D-03 at cycle   3 NSaved=   3.
 NSaved= 3 IEnMin= 3 EnMin= -389.151432753202     IErMin= 3 ErrMin= 3.43D-03
 ErrMax= 3.43D-03  0.00D+00 EMaxC= 1.00D-01 BMatC= 3.14D-03 BMatP= 8.66D-02
 IDIUse=3 WtCom= 9.66D-01 WtEn= 3.43D-02
 Coeff-Com: -0.245D-01 0.106D+00 0.919D+00
 Coeff-En:   0.000D+00 0.000D+00 0.100D+01
 Coeff:     -0.236D-01 0.102D+00 0.921D+00
 Gap=     0.499 Goal=   None    Shift=    0.000
 RMSDP=2.59D-04 MaxDP=7.14D-03 DE=-7.76D-02 OVMax= 1.01D-02

 Cycle   4  Pass 1  IDiag  1:
 E= -389.155058403233     Delta-E=       -0.003625650031 Rises=F Damp=F
 DIIS: error= 5.31D-04 at cycle   4 NSaved=   4.
 NSaved= 4 IEnMin= 4 EnMin= -389.155058403233     IErMin= 4 ErrMin= 5.31D-04
 ErrMax= 5.31D-04  0.00D+00 EMaxC= 1.00D-01 BMatC= 9.28D-05 BMatP= 3.14D-03
 IDIUse=3 WtCom= 9.95D-01 WtEn= 5.31D-03
 Coeff-Com: -0.424D-02-0.189D-02 0.950D-01 0.911D+00
 Coeff-En:   0.000D+00 0.000D+00 0.000D+00 0.100D+01
 Coeff:     -0.421D-02-0.188D-02 0.945D-01 0.912D+00
 Gap=     0.499 Goal=   None    Shift=    0.000
 RMSDP=7.39D-05 MaxDP=1.49D-03 DE=-3.63D-03 OVMax= 3.14D-03

 Cycle   5  Pass 1  IDiag  1:
 E= -389.155182730849     Delta-E=       -0.000124327616 Rises=F Damp=F
 DIIS: error= 1.63D-04 at cycle   5 NSaved=   5.
 NSaved= 5 IEnMin= 5 EnMin= -389.155182730849     IErMin= 5 ErrMin= 1.63D-04
 ErrMax= 1.63D-04  0.00D+00 EMaxC= 1.00D-01 BMatC= 1.60D-05 BMatP= 9.28D-05
 IDIUse=3 WtCom= 9.98D-01 WtEn= 1.63D-03
 Coeff-Com:  0.241D-02-0.152D-01-0.102D+00 0.176D+00 0.939D+00
 Coeff-En:   0.000D+00 0.000D+00 0.000D+00 0.000D+00 0.100D+01
 Coeff:      0.241D-02-0.152D-01-0.102D+00 0.175D+00 0.939D+00
 Gap=     0.500 Goal=   None    Shift=    0.000
 RMSDP=3.00D-05 MaxDP=6.56D-04 DE=-1.24D-04 OVMax= 9.24D-04

 Cycle   6  Pass 1  IDiag  1:
 E= -389.155204212792     Delta-E=       -0.000021481944 Rises=F Damp=F
 DIIS: error= 3.58D-05 at cycle   6 NSaved=   6.
 NSaved= 6 IEnMin= 6 EnMin= -389.155204212792     IErMin= 6 ErrMin= 3.58D-05
 ErrMax= 3.58D-05  0.00D+00 EMaxC= 1.00D-01 BMatC= 5.50D-07 BMatP= 1.60D-05
 IDIUse=1 WtCom= 1.00D+00 WtEn= 0.00D+00
 Coeff-Com:  0.720D-03-0.335D-02-0.261D-01-0.433D-02 0.177D+00 0.856D+00
 Coeff:      0.720D-03-0.335D-02-0.261D-01-0.433D-02 0.177D+00 0.856D+00
 Gap=     0.500 Goal=   None    Shift=    0.000
 RMSDP=5.30D-06 MaxDP=1.61D-04 DE=-2.15D-05 OVMax= 3.23D-04

 Cycle   7  Pass 1  IDiag  1:
 E= -389.155205053876     Delta-E=       -0.000000841083 Rises=F Damp=F
 DIIS: error= 1.03D-05 at cycle   7 NSaved=   7.
 NSaved= 7 IEnMin= 7 EnMin= -389.155205053876     IErMin= 7 ErrMin= 1.03D-05
 ErrMax= 1.03D-05  0.00D+00 EMaxC= 1.00D-01 BMatC= 5.44D-08 BMatP= 5.50D-07
 IDIUse=1 WtCom= 1.00D+00 WtEn= 0.00D+00
 Coeff-Com: -0.495D-04 0.464D-03 0.301D-02-0.105D-01-0.468D-01 0.145D+00
 Coeff-Com:  0.909D+00
 Coeff:     -0.495D-04 0.464D-03 0.301D-02-0.105D-01-0.468D-01 0.145D+00
 Coeff:      0.909D+00
 Gap=     0.500 Goal=   None    Shift=    0.000
 RMSDP=1.71D-06 MaxDP=4.10D-05 DE=-8.41D-07 OVMax= 8.43D-05

 Cycle   8  Pass 1  IDiag  1:
 E= -389.155205142849     Delta-E=       -0.000000088974 Rises=F Damp=F
 DIIS: error= 3.52D-06 at cycle   8 NSaved=   8.
 NSaved= 8 IEnMin= 8 EnMin= -389.155205142849     IErMin= 8 ErrMin= 3.52D-06
 ErrMax= 3.52D-06  0.00D+00 EMaxC= 1.00D-01 BMatC= 5.10D-09 BMatP= 5.44D-08
 IDIUse=1 WtCom= 1.00D+00 WtEn= 0.00D+00
 Coeff-Com: -0.581D-04 0.249D-03 0.208D-02 0.315D-02-0.171D-01-0.804D-01
 Coeff-Com: -0.123D+00 0.121D+01
 Coeff:     -0.581D-04 0.249D-03 0.208D-02 0.315D-02-0.171D-01-0.804D-01
 Coeff:     -0.123D+00 0.121D+01
 Gap=     0.500 Goal=   None    Shift=    0.000
 RMSDP=7.86D-07 MaxDP=2.41D-05 DE=-8.90D-08 OVMax= 5.81D-05

 Cycle   9  Pass 1  IDiag  1:
 E= -389.155205158761     Delta-E=       -0.000000015912 Rises=F Damp=F
 DIIS: error= 1.46D-06 at cycle   9 NSaved=   9.
 NSaved= 9 IEnMin= 9 EnMin= -389.155205158761     IErMin= 9 ErrMin= 1.46D-06
 ErrMax= 1.46D-06  0.00D+00 EMaxC= 1.00D-01 BMatC= 7.39D-10 BMatP= 5.10D-09
 IDIUse=1 WtCom= 1.00D+00 WtEn= 0.00D+00
 Coeff-Com:  0.930D-05-0.691D-04-0.481D-03 0.144D-02 0.386D-02 0.107D-03
 Coeff-Com: -0.865D-01-0.120D+00 0.120D+01
 Coeff:      0.930D-05-0.691D-04-0.481D-03 0.144D-02 0.386D-02 0.107D-03
 Coeff:     -0.865D-01-0.120D+00 0.120D+01
 Gap=     0.500 Goal=   None    Shift=    0.000
 RMSDP=2.99D-07 MaxDP=1.24D-05 DE=-1.59D-08 OVMax= 2.71D-05

 Cycle  10  Pass 1  IDiag  1:
 E= -389.155205161170     Delta-E=       -0.000000002409 Rises=F Damp=F
 DIIS: error= 3.97D-07 at cycle  10 NSaved=  10.
 NSaved=10 IEnMin=10 EnMin= -389.155205161170     IErMin=10 ErrMin= 3.97D-07
 ErrMax= 3.97D-07  0.00D+00 EMaxC= 1.00D-01 BMatC= 1.21D-10 BMatP= 7.39D-10
 IDIUse=1 WtCom= 1.00D+00 WtEn= 0.00D+00
 Coeff-Com:  0.952D-05-0.464D-04-0.369D-03-0.135D-03 0.233D-02 0.142D-01
 Coeff-Com:  0.596D-02-0.211D+00 0.143D+00 0.105D+01
 Coeff:      0.952D-05-0.464D-04-0.369D-03-0.135D-03 0.233D-02 0.142D-01
 Coeff:      0.596D-02-0.211D+00 0.143D+00 0.105D+01
 Gap=     0.500 Goal=   None    Shift=    0.000
 RMSDP=1.24D-07 MaxDP=3.07D-06 DE=-2.41D-09 OVMax= 9.88D-06

 Cycle  11  Pass 1  IDiag  1:
 E= -389.155205161491     Delta-E=       -0.000000000321 Rises=F Damp=F
 DIIS: error= 1.55D-07 at cycle  11 NSaved=  11.
 NSaved=11 IEnMin=11 EnMin= -389.155205161491     IErMin=11 ErrMin= 1.55D-07
 ErrMax= 1.55D-07  0.00D+00 EMaxC= 1.00D-01 BMatC= 9.53D-12 BMatP= 1.21D-10
 IDIUse=1 WtCom= 1.00D+00 WtEn= 0.00D+00
 Coeff-Com:  0.394D-06 0.841D-06 0.103D-05-0.149D-03-0.305D-03 0.278D-02
 Coeff-Com:  0.110D-01-0.153D-01-0.107D+00 0.164D+00 0.945D+00
 Coeff:      0.394D-06 0.841D-06 0.103D-05-0.149D-03-0.305D-03 0.278D-02
 Coeff:      0.110D-01-0.153D-01-0.107D+00 0.164D+00 0.945D+00
 Gap=     0.500 Goal=   None    Shift=    0.000
 RMSDP=2.76D-08 MaxDP=1.16D-06 DE=-3.21D-10 OVMax= 2.51D-06

 Cycle  12  Pass 1  IDiag  1:
 E= -389.155205161518     Delta-E=       -0.000000000027 Rises=F Damp=F
 DIIS: error= 3.63D-08 at cycle  12 NSaved=  12.
 NSaved=12 IEnMin=12 EnMin= -389.155205161518     IErMin=12 ErrMin= 3.63D-08
 ErrMax= 3.63D-08  0.00D+00 EMaxC= 1.00D-01 BMatC= 1.17D-12 BMatP= 9.53D-12
 IDIUse=1 WtCom= 1.00D+00 WtEn= 0.00D+00
 Coeff-Com: -0.102D-05 0.547D-05 0.429D-04 0.322D-05-0.343D-03-0.126D-02
 Coeff-Com:  0.367D-03 0.217D-01-0.322D-01-0.113D+00 0.984D-01 0.103D+01
 Coeff:     -0.102D-05 0.547D-05 0.429D-04 0.322D-05-0.343D-03-0.126D-02
 Coeff:      0.367D-03 0.217D-01-0.322D-01-0.113D+00 0.984D-01 0.103D+01
 Gap=     0.500 Goal=   None    Shift=    0.000
 RMSDP=1.18D-08 MaxDP=3.33D-07 DE=-2.74D-11 OVMax= 8.46D-07

 Cycle  13  Pass 1  IDiag  1:
 E= -389.155205161512     Delta-E=        0.000000000006 Rises=F Damp=F
 DIIS: error= 1.06D-08 at cycle  13 NSaved=  13.
 NSaved=13 IEnMin=12 EnMin= -389.155205161518     IErMin=13 ErrMin= 1.06D-08
 ErrMax= 1.06D-08  0.00D+00 EMaxC= 1.00D-01 BMatC= 5.47D-14 BMatP= 1.17D-12
 IDIUse=1 WtCom= 1.00D+00 WtEn= 0.00D+00
 Coeff-Com: -0.122D-06 0.462D-06 0.389D-05 0.136D-04-0.170D-04-0.298D-03
 Coeff-Com: -0.849D-03 0.352D-02 0.515D-02-0.213D-01-0.612D-01 0.111D+00
 Coeff-Com:  0.964D+00
 Coeff:     -0.122D-06 0.462D-06 0.389D-05 0.136D-04-0.170D-04-0.298D-03
 Coeff:     -0.849D-03 0.352D-02 0.515D-02-0.213D-01-0.612D-01 0.111D+00
 Coeff:      0.964D+00
 Gap=     0.500 Goal=   None    Shift=    0.000
 RMSDP=2.13D-09 MaxDP=7.02D-08 DE= 6.03D-12 OVMax= 1.05D-07

 SCF Done:  E(RHF) =  -389.155205162     A.U. after   13 cycles
            NFock= 13  Conv=0.21D-08     -V/T= 2.0014
 KE= 3.886257112236D+02 PE=-1.937499613365D+03 EE= 6.432857426217D+02
 Leave Link  502 at Fri Sep 17 14:58:28 2021, MaxMem=   524288000 cpu:              15.9 elap:              16.1
 (Enter /opt/gaussian/g16_legacy/l801.exe)
 ExpMin= 1.61D-01 ExpMax= 3.05D+03 ExpMxC= 4.57D+02 IAcc=3 IRadAn=         5 AccDes= 0.00D+00
 HarFok:  IExCor=  205 AccDes= 0.00D+00 IRadAn=         5 IDoV=-2 UseB2=F ITyADJ=14
 ICtDFT= 12500011 ScaDFX=  1.000000  1.000000  1.000000  1.000000
 Largest valence mixing into a core orbital is  1.98D-04
 Largest core mixing into a valence orbital is  3.52D-05
 Range of M.O.s used for correlation:    11   240
 NBasis=   240 NAE=    39 NBE=    39 NFC=    10 NFV=     0
 NROrb=    230 NOA=    29 NOB=    29 NVA=   201 NVB=   201
 Leave Link  801 at Fri Sep 17 14:58:29 2021, MaxMem=   524288000 cpu:               0.9 elap:               1.1
 (Enter /opt/gaussian/g16_legacy/l906.exe)
 Frozen-core derivative calculation, NFC=  10 NFV=   0.
 FulOut=F Deriv=T AODrv=T NAtomX=    28
   MMem=          88  MDisk=          29 MDiskD=          29
  W3Min=     2246400 MinDsk=     2795480 NBas6D=         240
 NBas2D=       29244    NTT=       28920    LW2=     2040000
    MDV=   523626386 MDiskM=       30186 NBas2p=       24383
 Fully direct method using O(ONN) memory.
 IMap=   1   2   3   4   5   6   7   8   9  10  11  12  13  14  15  16  17  18  19  20
 IMap=  21  22  23  24  25  26  27  28  29  30  31  32  33  34  35  36  37  38  39
 JobTyp=1 Pass  1:  I=  11 to  39 NPSUse=  1 ParTrn=F ParDer=F DoDerP=T.
 Spin components of T(2) and E(2):
     alpha-alpha T2 =       0.5715178072D-01 E2=     -0.1638024946D+00
     alpha-beta  T2 =       0.3618182778D+00 E2=     -0.1089339386D+01
     beta-beta   T2 =       0.5715178072D-01 E2=     -0.1638024946D+00
 The integrals were generated   1 times.
 ANorm=    0.1214957546D+01
 E2 =    -0.1416944375D+01 EUMP2 =    -0.39057214953699D+03
 Leave Link  906 at Fri Sep 17 15:00:46 2021, MaxMem=   524288000 cpu:             136.2 elap:             136.3
 (Enter /opt/gaussian/g16_legacy/l1002.exe)
 Minotr:  Closed shell wavefunction.
          Computing MP2/KS-MP2 derivatives.
          Using Z-Vector for PSCF gradient.
          Skipping F1 and S1 gradient terms here.
          IDoAtm=1111111111111111111111111111
          Frozen-core window.
          Direct CPHF calculation.
          Differentiating once with respect to electric field.
                with respect to dipole field.
          Differentiating once with respect to nuclear coordinates.
          Requested convergence is 1.0D-10 RMS, and 1.0D-09 maximum.
          NewPWx=F KeepS1=T KeepF1=T KeepIn=T MapXYZ=F SortEE=F KeepMc=T.
 Keep R1 ints in memory in canonical form, NReq=425201067.
 FoFCou: FMM=F IPFlag=           0 FMFlag=           0 FMFlg1=           0
         NFxFlg=           0 DoJE=F BraDBF=F KetDBF=F FulRan=T
         wScrn=  0.000000 ICntrl=       600 IOpCl=  0 I1Cent=           0 NGrid=           0
         NMat0=    1 NMatS0=  28920 NMatT0=    0 NMatD0=    1 NMtDS0=    0 NMtDT0=    0
 Symmetry not used in FoFCou.
 Two-electron integral symmetry not used.
          MDV=     524288000 using IRadAn=       5.
          Solving linear equations separately, MaxMat=       0.
          There are     1 degrees of freedom in the 1st order CPHF.  IDoFFX=0 NUNeed=     1.
 LinEq1:  Iter=  0 NonCon=     1 RMS=2.55D-03 Max=3.76D-02 NDo=     1
 AX will form     1 AO Fock derivatives at one time.
 LinEq1:  Iter=  1 NonCon=     1 RMS=6.90D-04 Max=9.74D-03 NDo=     1
 LinEq1:  Iter=  2 NonCon=     1 RMS=1.61D-04 Max=4.14D-03 NDo=     1
 LinEq1:  Iter=  3 NonCon=     1 RMS=4.31D-05 Max=5.08D-04 NDo=     1
 LinEq1:  Iter=  4 NonCon=     1 RMS=1.99D-05 Max=8.55D-04 NDo=     1
 LinEq1:  Iter=  5 NonCon=     1 RMS=5.06D-06 Max=8.26D-05 NDo=     1
 LinEq1:  Iter=  6 NonCon=     1 RMS=1.63D-06 Max=2.68D-05 NDo=     1
 LinEq1:  Iter=  7 NonCon=     1 RMS=4.13D-07 Max=4.19D-06 NDo=     1
 LinEq1:  Iter=  8 NonCon=     1 RMS=1.01D-07 Max=1.86D-06 NDo=     1
 LinEq1:  Iter=  9 NonCon=     1 RMS=2.33D-08 Max=6.32D-07 NDo=     1
 LinEq1:  Iter= 10 NonCon=     1 RMS=6.43D-09 Max=1.62D-07 NDo=     1
 LinEq1:  Iter= 11 NonCon=     1 RMS=1.89D-09 Max=3.64D-08 NDo=     1
 LinEq1:  Iter= 12 NonCon=     1 RMS=4.21D-10 Max=8.67D-09 NDo=     1
 LinEq1:  Iter= 13 NonCon=     1 RMS=1.13D-10 Max=1.03D-09 NDo=     1
 LinEq1:  Iter= 14 NonCon=     1 RMS=4.87D-11 Max=1.82D-09 NDo=     1
 LinEq1:  Iter= 15 NonCon=     0 RMS=1.45D-11 Max=1.97D-10 NDo=     1
 Linear equations converged to 1.000D-10 1.000D-09 after    15 iterations.
 End of Minotr F.D. properties file   721 does not exist.
 End of Minotr F.D. properties file   722 does not exist.
 End of Minotr F.D. properties file   788 does not exist.
 Leave Link 1002 at Fri Sep 17 15:01:06 2021, MaxMem=   524288000 cpu:              20.5 elap:              20.5
 (Enter /opt/gaussian/g16_legacy/l601.exe)
 Copying SCF densities to generalized density rwf, IOpCl= 0 IROHF=0.

 **********************************************************************

            Population analysis using the SCF density.

 **********************************************************************

 Orbital symmetries:
       Occupied  (A) (A) (A) (A) (A) (A) (A) (A) (A) (A) (A) (A)
                 (A) (A) (A) (A) (A) (A) (A) (A) (A) (A) (A) (A)
                 (A) (A) (A) (A) (A) (A) (A) (A) (A) (A) (A) (A)
                 (A) (A) (A)
       Virtual   (A) (A) (A) (A) (A) (A) (A) (A) (A) (A) (A) (A)
                 (A) (A) (A) (A) (A) (A) (A) (A) (A) (A) (A) (A)
                 (A) (A) (A) (A) (A) (A) (A) (A) (A) (A) (A) (A)
                 (A) (A) (A) (A) (A) (A) (A) (A) (A) (A) (A) (A)
                 (A) (A) (A) (A) (A) (A) (A) (A) (A) (A) (A) (A)
                 (A) (A) (A) (A) (A) (A) (A) (A) (A) (A) (A) (A)
                 (A) (A) (A) (A) (A) (A) (A) (A) (A) (A) (A) (A)
                 (A) (A) (A) (A) (A) (A) (A) (A) (A) (A) (A) (A)
                 (A) (A) (A) (A) (A) (A) (A) (A) (A) (A) (A) (A)
                 (A) (A) (A) (A) (A) (A) (A) (A) (A) (A) (A) (A)
                 (A) (A) (A) (A) (A) (A) (A) (A) (A) (A) (A) (A)
                 (A) (A) (A) (A) (A) (A) (A) (A) (A) (A) (A) (A)
                 (A) (A) (A) (A) (A) (A) (A) (A) (A) (A) (A) (A)
                 (A) (A) (A) (A) (A) (A) (A) (A) (A) (A) (A) (A)
                 (A) (A) (A) (A) (A) (A) (A) (A) (A) (A) (A) (A)
                 (A) (A) (A) (A) (A) (A) (A) (A) (A) (A) (A) (A)
                 (A) (A) (A) (A) (A) (A) (A) (A) (A)
 The electronic state is 1-A.
 Alpha  occ. eigenvalues --  -11.23061 -11.22505 -11.21999 -11.21921 -11.21884
 Alpha  occ. eigenvalues --  -11.21649 -11.21554 -11.21485 -11.21457 -11.21438
 Alpha  occ. eigenvalues --   -1.10623  -1.08326  -1.01911  -0.98012  -0.93647
 Alpha  occ. eigenvalues --   -0.91774  -0.86755  -0.82685  -0.70599  -0.69342
 Alpha  occ. eigenvalues --   -0.64584  -0.61544  -0.60101  -0.59030  -0.58087
 Alpha  occ. eigenvalues --   -0.56804  -0.55369  -0.55150  -0.53549  -0.51980
 Alpha  occ. eigenvalues --   -0.51716  -0.51321  -0.50592  -0.49229  -0.48274
 Alpha  occ. eigenvalues --   -0.46015  -0.44271  -0.33355  -0.31525
 Alpha virt. eigenvalues --    0.18456   0.19494   0.22038   0.24453   0.25183
 Alpha virt. eigenvalues --    0.27141   0.28395   0.28932   0.30249   0.30504
 Alpha virt. eigenvalues --    0.31237   0.32117   0.33135   0.33436   0.34032
 Alpha virt. eigenvalues --    0.35677   0.35775   0.36970   0.38998   0.40648
 Alpha virt. eigenvalues --    0.41063   0.42592   0.43320   0.44191   0.45150
 Alpha virt. eigenvalues --    0.51683   0.54045   0.61169   0.62446   0.70139
 Alpha virt. eigenvalues --    0.71101   0.71887   0.74280   0.76417   0.76616
 Alpha virt. eigenvalues --    0.76878   0.78795   0.79454   0.81138   0.82036
 Alpha virt. eigenvalues --    0.83812   0.85655   0.88078   0.91264   0.92026
 Alpha virt. eigenvalues --    0.92895   0.95177   0.97058   0.98262   0.99207
 Alpha virt. eigenvalues --    0.99750   1.00201   1.02302   1.03924   1.06181
 Alpha virt. eigenvalues --    1.07864   1.08639   1.08808   1.11199   1.12390
 Alpha virt. eigenvalues --    1.12560   1.13432   1.14582   1.14927   1.15820
 Alpha virt. eigenvalues --    1.16164   1.16404   1.18224   1.18705   1.20089
 Alpha virt. eigenvalues --    1.20662   1.22067   1.22854   1.25019   1.27540
 Alpha virt. eigenvalues --    1.34170   1.40671   1.41848   1.43736   1.45171
 Alpha virt. eigenvalues --    1.47559   1.53476   1.56255   1.56978   1.58247
 Alpha virt. eigenvalues --    1.59850   1.62721   1.65795   1.69518   1.70789
 Alpha virt. eigenvalues --    1.75329   1.82527   1.92037   1.92194   1.95501
 Alpha virt. eigenvalues --    1.98630   2.01126   2.02849   2.04183   2.08700
 Alpha virt. eigenvalues --    2.09241   2.11122   2.11379   2.13102   2.14506
 Alpha virt. eigenvalues --    2.15426   2.17688   2.19726   2.23579   2.27383
 Alpha virt. eigenvalues --    2.28337   2.29992   2.32198   2.34975   2.35565
 Alpha virt. eigenvalues --    2.35643   2.35782   2.39324   2.39851   2.40351
 Alpha virt. eigenvalues --    2.41278   2.41828   2.43036   2.45158   2.45387
 Alpha virt. eigenvalues --    2.47030   2.48340   2.49334   2.50335   2.54525
 Alpha virt. eigenvalues --    2.56587   2.57721   2.61273   2.62183   2.64353
 Alpha virt. eigenvalues --    2.66340   2.67158   2.72032   2.72994   2.73746
 Alpha virt. eigenvalues --    2.75718   2.77703   2.81094   2.82807   2.85160
 Alpha virt. eigenvalues --    2.87730   2.89151   2.91919   2.93442   2.94437
 Alpha virt. eigenvalues --    2.97093   2.99034   3.01160   3.02599   3.05097
 Alpha virt. eigenvalues --    3.05822   3.06630   3.08504   3.13015   3.15936
 Alpha virt. eigenvalues --    3.17138   3.18163   3.19614   3.20678   3.21269
 Alpha virt. eigenvalues --    3.23191   3.24411   3.26460   3.27243   3.36663
 Alpha virt. eigenvalues --    3.39072   3.44605   3.45616   3.55556   3.57291
 Alpha virt. eigenvalues --    3.58696   3.61057   3.66895   3.73956   3.78201
 Alpha virt. eigenvalues --    3.78870   3.80509   3.81324   3.82332   3.82838
 Alpha virt. eigenvalues --    3.84205   3.85745   3.87659   3.89507   3.91177
 Alpha virt. eigenvalues --    3.95898   4.59093   4.62633   4.74429   4.82817
 Alpha virt. eigenvalues --    4.88836   4.92669   4.93352   5.07549   5.10286
 Alpha virt. eigenvalues --    5.16868
          Condensed to atoms (all electrons):
               1          2          3          4          5          6
     1  C    5.001853   0.412347   0.413503   0.340277  -0.058748  -0.000531
     2  H    0.412347   0.571690  -0.030224  -0.040528   0.003237  -0.000030
     3  H    0.413503  -0.030224   0.588511  -0.045061  -0.004691  -0.000276
     4  C    0.340277  -0.040528  -0.045061   4.955099   0.349332  -0.045810
     5  C   -0.058748   0.003237  -0.004691   0.349332   4.896456   0.400282
     6  H   -0.000531  -0.000030  -0.000276  -0.045810   0.400282   0.594744
     7  H   -0.003554  -0.000016   0.002571  -0.043069   0.397382  -0.034999
     8  H    0.003676  -0.000103   0.000081  -0.041416   0.406171  -0.028078
     9  C   -0.044046  -0.002231   0.001918   0.698837  -0.045930  -0.001034
    10  H    0.003079   0.000060  -0.000114  -0.036534  -0.006481   0.000123
    11  C   -0.007063  -0.002135   0.000138  -0.050682   0.003424  -0.000100
    12  H    0.000232  -0.000034  -0.000010   0.000594  -0.000100   0.000015
    13  H   -0.001828  -0.001334   0.000004  -0.000418   0.000092   0.000000
    14  H    0.000227   0.000172   0.000028  -0.001412  -0.000116  -0.000005
    15  C    0.000597   0.000160  -0.000016  -0.000017  -0.000000  -0.000000
    16  H   -0.000041   0.000014   0.000000   0.000001  -0.000000   0.000000
    17  H    0.000077  -0.000076  -0.000001  -0.000002   0.000000   0.000000
    18  H   -0.000053  -0.000052  -0.000012  -0.000027  -0.000000   0.000000
    19  C   -0.003607   0.001046   0.000615   0.000006  -0.000002   0.000000
    20  C   -0.000101  -0.000042  -0.000000   0.000002  -0.000000  -0.000000
    21  H   -0.000004   0.000001   0.000000   0.000000  -0.000000   0.000000
    22  H   -0.000003  -0.000002   0.000002   0.000000  -0.000000  -0.000000
    23  H    0.000022  -0.000005  -0.000001  -0.000000   0.000000   0.000000
    24  C   -0.063079  -0.000808  -0.000608   0.006131  -0.000158  -0.000086
    25  H    0.000005   0.000213   0.001003  -0.000155   0.000010   0.000012
    26  C    0.326224  -0.039858  -0.044595  -0.057361  -0.000187   0.000810
    27  H   -0.040293  -0.002144   0.004202  -0.001437   0.000317  -0.000009
    28  H   -0.045136   0.004291  -0.002604  -0.001851  -0.000392  -0.000187
               7          8          9         10         11         12
     1  C   -0.003554   0.003676  -0.044046   0.003079  -0.007063   0.000232
     2  H   -0.000016  -0.000103  -0.002231   0.000060  -0.002135  -0.000034
     3  H    0.002571   0.000081   0.001918  -0.000114   0.000138  -0.000010
     4  C   -0.043069  -0.041416   0.698837  -0.036534  -0.050682   0.000594
     5  C    0.397382   0.406171  -0.045930  -0.006481   0.003424  -0.000100
     6  H   -0.034999  -0.028078  -0.001034   0.000123  -0.000100   0.000015
     7  H    0.593598  -0.027611  -0.000425   0.000248  -0.000114  -0.000004
     8  H   -0.027611   0.571066  -0.002738   0.002222   0.000137  -0.000009
     9  C   -0.000425  -0.002738   4.939961   0.404870   0.337725  -0.042840
    10  H    0.000248   0.002222   0.404870   0.559363  -0.043634  -0.002647
    11  C   -0.000114   0.000137   0.337725  -0.043634   4.906207   0.402997
    12  H   -0.000004  -0.000009  -0.042840  -0.002647   0.402997   0.586829
    13  H   -0.000001   0.000004  -0.041939   0.003315   0.408018  -0.030025
    14  H    0.000021  -0.000004  -0.044348  -0.000221   0.400032  -0.033273
    15  C   -0.000000  -0.000000   0.000010  -0.000000  -0.000097  -0.000004
    16  H    0.000000   0.000000   0.000000   0.000000   0.000002  -0.000000
    17  H   -0.000000  -0.000000   0.000000  -0.000000  -0.000003   0.000000
    18  H   -0.000000   0.000000  -0.000032   0.000000   0.000040   0.000042
    19  C    0.000000   0.000000   0.000001   0.000000   0.000007   0.000000
    20  C   -0.000000   0.000000  -0.000000   0.000000  -0.000000  -0.000000
    21  H    0.000000   0.000000   0.000000   0.000000  -0.000000  -0.000000
    22  H   -0.000000   0.000000  -0.000000   0.000000   0.000000  -0.000000
    23  H   -0.000000  -0.000000  -0.000000  -0.000000   0.000000   0.000000
    24  C    0.000000   0.000003   0.000070   0.000002  -0.000032  -0.000004
    25  H   -0.000002  -0.000000  -0.000002  -0.000000   0.000000   0.000000
    26  C    0.000027  -0.000097  -0.004367  -0.000116   0.000690   0.000091
    27  H    0.000012  -0.000010   0.001216  -0.000044   0.000070  -0.000079
    28  H    0.000093  -0.000025   0.000514   0.000004  -0.000030   0.000000
              13         14         15         16         17         18
     1  C   -0.001828   0.000227   0.000597  -0.000041   0.000077  -0.000053
     2  H   -0.001334   0.000172   0.000160   0.000014  -0.000076  -0.000052
     3  H    0.000004   0.000028  -0.000016   0.000000  -0.000001  -0.000012
     4  C   -0.000418  -0.001412  -0.000017   0.000001  -0.000002  -0.000027
     5  C    0.000092  -0.000116  -0.000000  -0.000000   0.000000  -0.000000
     6  H    0.000000  -0.000005  -0.000000   0.000000   0.000000   0.000000
     7  H   -0.000001   0.000021  -0.000000   0.000000  -0.000000  -0.000000
     8  H    0.000004  -0.000004  -0.000000   0.000000  -0.000000   0.000000
     9  C   -0.041939  -0.044348   0.000010   0.000000   0.000000  -0.000032
    10  H    0.003315  -0.000221  -0.000000   0.000000  -0.000000   0.000000
    11  C    0.408018   0.400032  -0.000097   0.000002  -0.000003   0.000040
    12  H   -0.030025  -0.033273  -0.000004  -0.000000   0.000000   0.000042
    13  H    0.573901  -0.026849   0.000010  -0.000006   0.000034   0.000571
    14  H   -0.026849   0.584208   0.000002   0.000000  -0.000000  -0.000008
    15  C    0.000010   0.000002   4.909221   0.398271   0.402449   0.406142
    16  H   -0.000006   0.000000   0.398271   0.582528  -0.033097  -0.026274
    17  H    0.000034  -0.000000   0.402449  -0.033097   0.586164  -0.030007
    18  H    0.000571  -0.000008   0.406142  -0.026274  -0.030007   0.568204
    19  C   -0.000013  -0.000000   0.348390  -0.043831  -0.043926  -0.037062
    20  C    0.000000   0.000000  -0.065375  -0.001685  -0.003428   0.003678
    21  H   -0.000000   0.000000  -0.001106   0.002554  -0.000507  -0.000023
    22  H   -0.000000  -0.000000   0.003695  -0.000079   0.000010  -0.000108
    23  H   -0.000000  -0.000000  -0.002138  -0.000371   0.002846  -0.000072
    24  C    0.000003   0.000002  -0.043316  -0.000841   0.000447  -0.002870
    25  H   -0.000001   0.000000   0.003364  -0.000126  -0.000110   0.000059
    26  C   -0.000212  -0.000050  -0.007533   0.000188   0.000286  -0.001945
    27  H   -0.000251   0.000023  -0.002064   0.000056  -0.000043  -0.001169
    28  H   -0.000008  -0.000000   0.000169   0.000032  -0.000012   0.000031
              19         20         21         22         23         24
     1  C   -0.003607  -0.000101  -0.000004  -0.000003   0.000022  -0.063079
     2  H    0.001046  -0.000042   0.000001  -0.000002  -0.000005  -0.000808
     3  H    0.000615  -0.000000   0.000000   0.000002  -0.000001  -0.000608
     4  C    0.000006   0.000002   0.000000   0.000000  -0.000000   0.006131
     5  C   -0.000002  -0.000000  -0.000000  -0.000000   0.000000  -0.000158
     6  H    0.000000  -0.000000   0.000000  -0.000000   0.000000  -0.000086
     7  H    0.000000  -0.000000   0.000000  -0.000000  -0.000000   0.000000
     8  H    0.000000   0.000000   0.000000   0.000000  -0.000000   0.000003
     9  C    0.000001  -0.000000   0.000000  -0.000000  -0.000000   0.000070
    10  H    0.000000   0.000000   0.000000   0.000000  -0.000000   0.000002
    11  C    0.000007  -0.000000  -0.000000   0.000000   0.000000  -0.000032
    12  H    0.000000  -0.000000  -0.000000  -0.000000   0.000000  -0.000004
    13  H   -0.000013   0.000000  -0.000000  -0.000000  -0.000000   0.000003
    14  H   -0.000000   0.000000   0.000000  -0.000000  -0.000000   0.000002
    15  C    0.348390  -0.065375  -0.001106   0.003695  -0.002138  -0.043316
    16  H   -0.043831  -0.001685   0.002554  -0.000079  -0.000371  -0.000841
    17  H   -0.043926  -0.003428  -0.000507   0.000010   0.002846   0.000447
    18  H   -0.037062   0.003678  -0.000023  -0.000108  -0.000072  -0.002870
    19  C    4.918283   0.352280  -0.045774  -0.040388  -0.044301   0.698159
    20  C    0.352280   4.903232   0.399262   0.405431   0.396992  -0.044864
    21  H   -0.045774   0.399262   0.593093  -0.027562  -0.034905  -0.001133
    22  H   -0.040388   0.405431  -0.027562   0.568014  -0.027368  -0.002387
    23  H   -0.044301   0.396992  -0.034905  -0.027368   0.594295  -0.000548
    24  C    0.698159  -0.044864  -0.001133  -0.002387  -0.000548   4.961522
    25  H   -0.036134  -0.006747   0.000150   0.002176   0.000235   0.402024
    26  C   -0.048269   0.003153  -0.000124   0.000146  -0.000086   0.339928
    27  H    0.000821   0.000071   0.000004   0.000006  -0.000004  -0.043803
    28  H    0.000914  -0.000102   0.000012  -0.000011  -0.000002  -0.043354
              25         26         27         28
     1  C    0.000005   0.326224  -0.040293  -0.045136
     2  H    0.000213  -0.039858  -0.002144   0.004291
     3  H    0.001003  -0.044595   0.004202  -0.002604
     4  C   -0.000155  -0.057361  -0.001437  -0.001851
     5  C    0.000010  -0.000187   0.000317  -0.000392
     6  H    0.000012   0.000810  -0.000009  -0.000187
     7  H   -0.000002   0.000027   0.000012   0.000093
     8  H   -0.000000  -0.000097  -0.000010  -0.000025
     9  C   -0.000002  -0.004367   0.001216   0.000514
    10  H   -0.000000  -0.000116  -0.000044   0.000004
    11  C    0.000000   0.000690   0.000070  -0.000030
    12  H    0.000000   0.000091  -0.000079   0.000000
    13  H   -0.000001  -0.000212  -0.000251  -0.000008
    14  H    0.000000  -0.000050   0.000023  -0.000000
    15  C    0.003364  -0.007533  -0.002064   0.000169
    16  H   -0.000126   0.000188   0.000056   0.000032
    17  H   -0.000110   0.000286  -0.000043  -0.000012
    18  H    0.000059  -0.001945  -0.001169   0.000031
    19  C   -0.036134  -0.048269   0.000821   0.000914
    20  C   -0.006747   0.003153   0.000071  -0.000102
    21  H    0.000150  -0.000124   0.000004   0.000012
    22  H    0.002176   0.000146   0.000006  -0.000011
    23  H    0.000235  -0.000086  -0.000004  -0.000002
    24  C    0.402024   0.339928  -0.043803  -0.043354
    25  H    0.558484  -0.041270   0.003230  -0.003485
    26  C   -0.041270   4.982287   0.414885   0.413779
    27  H    0.003230   0.414885   0.571192  -0.029597
    28  H   -0.003485   0.413779  -0.029597   0.588493
 Mulliken charges:
               1
     1  C   -0.234031
     2  H    0.126391
     3  H    0.115636
     4  C    0.015503
     5  C   -0.339896
     6  H    0.115158
     7  H    0.115842
     8  H    0.116729
     9  C   -0.155191
    10  H    0.116503
    11  C   -0.355596
    12  H    0.118228
    13  H    0.116934
    14  H    0.121571
    15  C   -0.350812
    16  H    0.122707
    17  H    0.118900
    18  H    0.120948
    19  C    0.022785
    20  C   -0.341754
    21  H    0.116062
    22  H    0.118428
    23  H    0.115411
    24  C   -0.160403
    25  H    0.117068
    26  C   -0.236425
    27  H    0.124843
    28  H    0.118464
 Sum of Mulliken charges =  -0.00000
 Mulliken charges with hydrogens summed into heavy atoms:
               1
     1  C    0.007996
     4  C    0.015503
     5  C    0.007832
     9  C   -0.038688
    11  C    0.001137
    15  C    0.011742
    19  C    0.022785
    20  C    0.008147
    24  C   -0.043335
    26  C    0.006882
 Electronic spatial extent (au):  <R**2>=           2423.6610
 Charge=              0.0000 electrons
 Dipole moment (field-independent basis, Debye):
    X=              0.2951    Y=              0.1261    Z=             -0.0059  Tot=              0.3209
 Quadrupole moment (field-independent basis, Debye-Ang):
   XX=            -64.5129   YY=            -63.6027   ZZ=            -67.0540
   XY=              0.6112   XZ=              0.8621   YZ=             -0.4853
 Traceless Quadrupole moment (field-independent basis, Debye-Ang):
   XX=              0.5437   YY=              1.4538   ZZ=             -1.9975
   XY=              0.6112   XZ=              0.8621   YZ=             -0.4853
 Octapole moment (field-independent basis, Debye-Ang**2):
  XXX=              1.3715  YYY=             -2.7210  ZZZ=              0.1846  XYY=             -0.5682
  XXY=              4.5359  XXZ=             -2.6489  XZZ=              1.5756  YZZ=              1.2274
  YYZ=              1.3720  XYZ=             -0.7524
 Hexadecapole moment (field-independent basis, Debye-Ang**3):
 XXXX=          -2492.3288 YYYY=           -696.1272 ZZZZ=           -174.8257 XXXY=             -2.3373
 XXXZ=             11.9280 YYYX=             -9.3578 YYYZ=             -3.0481 ZZZX=             -0.8372
 ZZZY=             -0.0639 XXYY=           -530.4657 XXZZ=           -456.3108 YYZZ=           -139.1732
 XXYZ=             -4.2419 YYXZ=              3.1943 ZZXY=              4.6999
 N-N= 5.164329543583D+02 E-N=-1.937499613478D+03  KE= 3.886257112236D+02
 No NMR shielding tensors so no spin-rotation constants.
 Leave Link  601 at Fri Sep 17 15:01:07 2021, MaxMem=   524288000 cpu:               0.2 elap:               0.4
 (Enter /opt/gaussian/g16_legacy/l701.exe)
 ... and contract with generalized density number  2.
 Compute integral first derivatives.
 Leave Link  701 at Fri Sep 17 15:01:07 2021, MaxMem=   524288000 cpu:               0.2 elap:               0.2
 (Enter /opt/gaussian/g16_legacy/l702.exe)
 L702 exits ... SP integral derivatives will be done elsewhere.
 Leave Link  702 at Fri Sep 17 15:01:07 2021, MaxMem=   524288000 cpu:               0.0 elap:               0.0
 (Enter /opt/gaussian/g16_legacy/l703.exe)
 Integral derivatives from FoFJK, PRISM(SPDF).
 Compute integral first derivatives, UseDBF=F ICtDFT=           0.
 Calling FoFJK, ICntrl=  10002127 FMM=F ISym2X=0 I1Cent= 0 IOpClX= 0 NMat=1 NMatS=1 NMatT=0.
 FoFJK:  IHMeth= 1 ICntrl=10002127 DoSepK=F KAlg= 0 I1Cent=           0 FoldK=F
 IRaf=         0 NMat=       1 IRICut=       1 DoRegI=T DoRafI=F ISym2E= 0 IDoP0=0 IntGTp=1.
 FoFCou: FMM=F IPFlag=           0 FMFlag=      100000 FMFlg1=         800
         NFxFlg=           0 DoJE=F BraDBF=F KetDBF=F FulRan=T
         wScrn=  0.000000 ICntrl=  10002127 IOpCl=  0 I1Cent=           0 NGrid=           0
         NMat0=    1 NMatS0=      1 NMatT0=    0 NMatD0=    1 NMtDS0=    0 NMtDT0=    0
 Symmetry not used in FoFCou.
 Leave Link  703 at Fri Sep 17 15:01:26 2021, MaxMem=   524288000 cpu:              19.1 elap:              19.1
 (Enter /opt/gaussian/g16_legacy/l716.exe)
 Dipole        = 9.11816686D-02 6.68771736D-02-4.79457053D-03
 ***** Axes restored to original set *****
 -------------------------------------------------------------------
 Center     Atomic                   Forces (Hartrees/Bohr)
 Number     Number              X              Y              Z
 -------------------------------------------------------------------
      1        6          -0.007587002    0.005418454   -0.001962473
      2        1           0.001475425   -0.003457738   -0.002797964
      3        1           0.001100425   -0.001492851   -0.003355684
      4        6          -0.005224237    0.001067423    0.003600231
      5        6          -0.002500911   -0.000416612   -0.002036426
      6        1          -0.001428362    0.000538566    0.003028515
      7        1           0.001928197   -0.002178918   -0.001713868
      8        1           0.003720311    0.001617660    0.000777197
      9        6           0.002278705   -0.002940413   -0.000412355
     10        1           0.001935519   -0.001946309    0.002282034
     11        6           0.002007083    0.001689276   -0.000608393
     12        1          -0.000705625    0.002251136    0.002575219
     13        1          -0.003118289   -0.001080559    0.000588521
     14        1           0.002219369    0.000531209   -0.002555316
     15        6          -0.003806943    0.000083302   -0.002633933
     16        1          -0.000487712    0.002912590    0.001075930
     17        1           0.001999696   -0.002851959   -0.001078923
     18        1           0.002209735   -0.001966658    0.001864613
     19        6          -0.001909900   -0.000929271    0.004961472
     20        6          -0.000689793   -0.001745363    0.002796013
     21        1          -0.000598820    0.002899167    0.001592107
     22        1          -0.001405842    0.001788007   -0.003680588
     23        1           0.002456201   -0.001677315   -0.001874755
     24        6          -0.000303697   -0.003955660   -0.003435633
     25        1           0.001974080    0.002657192   -0.000759156
     26        6           0.007818867   -0.001388108    0.000137084
     27        1          -0.001355629    0.001863267    0.003249814
     28        1          -0.002000852    0.002710484    0.000376716
 -------------------------------------------------------------------
 Cartesian Forces:  Max     0.007818867 RMS     0.002576804
 Leave Link  716 at Fri Sep 17 15:01:26 2021, MaxMem=   524288000 cpu:               0.0 elap:               0.0
 (Enter /opt/gaussian/g16_legacy/l103.exe)

 GradGradGradGradGradGradGradGradGradGradGradGradGradGradGradGradGradGrad
 Berny optimization.
 FormGI is forming the generalized inverse of G from B-inverse, IUseBI=4.
 Internal  Forces:  Max     0.004874925 RMS     0.001918218
 Search for a local minimum.
 Step number   1 out of a maximum of  138
 All quantities printed in internal units (Hartrees-Bohrs-Radians)
 RMS Force = .19182D-02 SwitMx=.10000D-02 MixMth= 1
 Mixed Optimization -- RFO/linear search
 Second derivative matrix not updated -- first step.
 ITU=  0
     Eigenvalues ---    0.00343   0.00569   0.00671   0.00680   0.00692
     Eigenvalues ---    0.00714   0.00817   0.01219   0.01286   0.01568
     Eigenvalues ---    0.01641   0.02780   0.02784   0.04018   0.04139
     Eigenvalues ---    0.05349   0.05399   0.06979   0.07035   0.07091
     Eigenvalues ---    0.07092   0.07269   0.07301   0.07347   0.07504
     Eigenvalues ---    0.09276   0.09361   0.12766   0.12842   0.15999
     Eigenvalues ---    0.15999   0.16000   0.16000   0.16000   0.16000
     Eigenvalues ---    0.16000   0.16000   0.16000   0.16000   0.16000
     Eigenvalues ---    0.16000   0.16000   0.16000   0.21859   0.21866
     Eigenvalues ---    0.22000   0.22000   0.24994   0.24997   0.24998
     Eigenvalues ---    0.24999   0.29242   0.30864   0.31633   0.31703
     Eigenvalues ---    0.31799   0.31970   0.32786   0.33860   0.33974
     Eigenvalues ---    0.34061   0.34199   0.34216   0.34233   0.34247
     Eigenvalues ---    0.34252   0.34253   0.34254   0.34259   0.34266
     Eigenvalues ---    0.34295   0.34340   0.34540   0.34557   0.34806
     Eigenvalues ---    0.34848   0.55499   0.55564
 RFO step:  Lambda=-2.96138970D-03 EMin= 3.42975434D-03
 Linear search not attempted -- first point.
 Iteration  1 RMS(Cart)=  0.03970804 RMS(Int)=  0.00072325
 Iteration  2 RMS(Cart)=  0.00093498 RMS(Int)=  0.00016618
 Iteration  3 RMS(Cart)=  0.00000043 RMS(Int)=  0.00016618
 ITry= 1 IFail=0 DXMaxC= 1.83D-01 DCOld= 1.00D+10 DXMaxT= 3.00D-01 DXLimC= 3.00D+00 Rises=F
 Variable       Old X    -DE/DX   Delta X   Delta X   Delta X     New X
                                 (Linear)    (Quad)   (Total)
    R1        2.07227  -0.00332   0.00000  -0.00967  -0.00967   2.06259
    R2        2.07567  -0.00282   0.00000  -0.00825  -0.00825   2.06742
    R3        2.86273  -0.00356   0.00000  -0.01142  -0.01142   2.85131
    R4        2.89501   0.00174   0.00000   0.00589   0.00589   2.90090
    R5        2.84821  -0.00045   0.00000  -0.00141  -0.00141   2.84679
    R6        2.54691  -0.00396   0.00000  -0.00709  -0.00709   2.53982
    R7        2.06835  -0.00180   0.00000  -0.00521  -0.00521   2.06314
    R8        2.06903  -0.00214   0.00000  -0.00618  -0.00618   2.06284
    R9        2.06967  -0.00374   0.00000  -0.01084  -0.01084   2.05883
   R10        2.05922  -0.00221   0.00000  -0.00630  -0.00630   2.05292
   R11        2.82729   0.00305   0.00000   0.00922   0.00922   2.83651
   R12        2.06905  -0.00264   0.00000  -0.00764  -0.00764   2.06141
   R13        2.06400  -0.00289   0.00000  -0.00828  -0.00828   2.05572
   R14        2.06761  -0.00155   0.00000  -0.00449  -0.00449   2.06312
   R15        2.06883  -0.00186   0.00000  -0.00537  -0.00537   2.06346
   R16        2.06995  -0.00262   0.00000  -0.00758  -0.00758   2.06237
   R17        2.06429  -0.00288   0.00000  -0.00827  -0.00827   2.05602
   R18        2.84199  -0.00049   0.00000  -0.00153  -0.00153   2.84047
   R19        2.84691  -0.00079   0.00000  -0.00247  -0.00247   2.84444
   R20        2.54634  -0.00331   0.00000  -0.00592  -0.00592   2.54042
   R21        2.06915  -0.00200   0.00000  -0.00579  -0.00579   2.06336
   R22        2.06938  -0.00393   0.00000  -0.01139  -0.01139   2.05799
   R23        2.06907  -0.00197   0.00000  -0.00571  -0.00571   2.06336
   R24        2.05991  -0.00193   0.00000  -0.00550  -0.00550   2.05441
   R25        2.84513  -0.00152   0.00000  -0.00474  -0.00474   2.84039
   R26        2.06896  -0.00271   0.00000  -0.00783  -0.00783   2.06113
   R27        2.07373  -0.00236   0.00000  -0.00690  -0.00690   2.06683
    A1        1.82998   0.00206   0.00000   0.02241   0.02225   1.85222
    A2        1.93011   0.00043   0.00000   0.00928   0.00931   1.93942
    A3        1.91835  -0.00277   0.00000  -0.02019  -0.02022   1.89813
    A4        1.90256  -0.00069   0.00000  -0.00266  -0.00266   1.89991
    A5        1.92012  -0.00195   0.00000  -0.01729  -0.01732   1.90280
    A6        1.95837   0.00283   0.00000   0.00911   0.00916   1.96753
    A7        2.00827   0.00238   0.00000   0.00969   0.00912   2.01740
    A8        2.17067  -0.00487   0.00000  -0.01891  -0.01944   2.15123
    A9        2.10407   0.00252   0.00000   0.01032   0.00974   2.11381
   A10        1.92805   0.00228   0.00000   0.01216   0.01218   1.94023
   A11        1.92477   0.00166   0.00000   0.00904   0.00905   1.93383
   A12        1.95918  -0.00261   0.00000  -0.01302  -0.01299   1.94620
   A13        1.89512  -0.00309   0.00000  -0.02484  -0.02483   1.87029
   A14        1.87701   0.00055   0.00000   0.00562   0.00566   1.88267
   A15        1.87756   0.00109   0.00000   0.01019   0.01023   1.88778
   A16        2.06969  -0.00194   0.00000  -0.01337  -0.01338   2.05631
   A17        2.22514  -0.00188   0.00000  -0.00839  -0.00841   2.21672
   A18        1.98822   0.00382   0.00000   0.02193   0.02191   2.01014
   A19        1.90998   0.00238   0.00000   0.01561   0.01556   1.92554
   A20        1.98120  -0.00299   0.00000  -0.01839  -0.01830   1.96290
   A21        1.91729   0.00394   0.00000   0.02323   0.02319   1.94049
   A22        1.87257   0.00053   0.00000   0.00504   0.00511   1.87767
   A23        1.88720  -0.00309   0.00000  -0.01888  -0.01905   1.86815
   A24        1.89298  -0.00096   0.00000  -0.00769  -0.00759   1.88539
   A25        1.89073  -0.00240   0.00000  -0.02164  -0.02162   1.86910
   A26        1.88442   0.00023   0.00000   0.00326   0.00328   1.88771
   A27        1.92153   0.00231   0.00000   0.01176   0.01178   1.93331
   A28        1.86376   0.00200   0.00000   0.01693   0.01694   1.88070
   A29        1.92085  -0.00000   0.00000  -0.00094  -0.00092   1.91993
   A30        1.97966  -0.00221   0.00000  -0.01016  -0.01014   1.96952
   A31        1.99470   0.00146   0.00000   0.00580   0.00578   2.00048
   A32        2.18271  -0.00330   0.00000  -0.01301  -0.01303   2.16968
   A33        2.10573   0.00184   0.00000   0.00732   0.00730   2.11302
   A34        1.92336   0.00176   0.00000   0.00885   0.00887   1.93223
   A35        1.96061  -0.00277   0.00000  -0.01386  -0.01382   1.94679
   A36        1.92494   0.00220   0.00000   0.01233   0.01235   1.93729
   A37        1.87887   0.00091   0.00000   0.00788   0.00792   1.88679
   A38        1.89483  -0.00313   0.00000  -0.02538  -0.02537   1.86945
   A39        1.87923   0.00092   0.00000   0.00934   0.00938   1.88861
   A40        2.06722  -0.00168   0.00000  -0.01188  -0.01228   2.05494
   A41        2.22704  -0.00224   0.00000  -0.00986  -0.01028   2.21676
   A42        1.98880   0.00394   0.00000   0.02254   0.02212   2.01092
   A43        1.94441   0.00332   0.00000   0.01372   0.01375   1.95815
   A44        1.92604  -0.00264   0.00000  -0.02492  -0.02499   1.90104
   A45        1.92089  -0.00239   0.00000  -0.01476  -0.01496   1.90594
   A46        1.94665  -0.00054   0.00000  -0.00249  -0.00244   1.94421
   A47        1.88056   0.00061   0.00000   0.01710   0.01714   1.89771
   A48        1.84196   0.00155   0.00000   0.01187   0.01160   1.85357
    D1       -2.64272  -0.00174   0.00000  -0.05210  -0.05188  -2.69461
    D2        0.47847  -0.00076   0.00000   0.01011   0.00988   0.48835
    D3       -0.63962   0.00059   0.00000  -0.02154  -0.02129  -0.66091
    D4        2.48156   0.00157   0.00000   0.04067   0.04048   2.52204
[...]
                 (A) (A) (A) (A) (A) (A) (A) (A) (A) (A) (A) (A)
                 (A) (A) (A) (A) (A) (A) (A) (A) (A) (A) (A) (A)
                 (A) (A) (A) (A) (A) (A) (A) (A) (A) (A) (A) (A)
                 (A) (A) (A) (A) (A) (A) (A) (A) (A) (A) (A) (A)
                 (A) (A) (A) (A) (A) (A) (A) (A) (A) (A) (A) (A)
                 (A) (A) (A) (A) (A) (A) (A) (A) (A) (A) (A) (A)
                 (A) (A) (A) (A) (A) (A) (A) (A) (A) (A) (A) (A)
                 (A) (A) (A) (A) (A) (A) (A) (A) (A) (A) (A) (A)
                 (A) (A) (A) (A) (A) (A) (A) (A) (A) (A) (A) (A)
                 (A) (A) (A) (A) (A) (A) (A) (A) (A) (A) (A) (A)
                 (A) (A) (A) (A) (A) (A) (A) (A) (A) (A) (A) (A)
                 (A) (A) (A) (A) (A) (A) (A) (A) (A) (A) (A) (A)
                 (A) (A) (A) (A) (A) (A) (A) (A) (A) (A) (A) (A)
                 (A) (A) (A) (A) (A) (A) (A) (A) (A)
 The electronic state is 1-A.
 Alpha  occ. eigenvalues --  -11.23020 -11.22460 -11.21868 -11.21730 -11.21712
 Alpha  occ. eigenvalues --  -11.21539 -11.21506 -11.21436 -11.21417 -11.21348
 Alpha  occ. eigenvalues --   -1.10821  -1.08492  -1.01823  -0.98143  -0.93838
 Alpha  occ. eigenvalues --   -0.91939  -0.86963  -0.82855  -0.70494  -0.69519
 Alpha  occ. eigenvalues --   -0.64988  -0.61512  -0.60591  -0.58878  -0.58366
 Alpha  occ. eigenvalues --   -0.56774  -0.55298  -0.54966  -0.53295  -0.52261
 Alpha  occ. eigenvalues --   -0.51859  -0.51173  -0.50832  -0.49581  -0.48519
 Alpha  occ. eigenvalues --   -0.46073  -0.44624  -0.33371  -0.31514
 Alpha virt. eigenvalues --    0.18142   0.19779   0.22152   0.24486   0.25192
 Alpha virt. eigenvalues --    0.27439   0.28535   0.28922   0.30318   0.30811
 Alpha virt. eigenvalues --    0.31477   0.32261   0.33202   0.33794   0.34383
 Alpha virt. eigenvalues --    0.35458   0.36114   0.36962   0.39185   0.40602
 Alpha virt. eigenvalues --    0.41328   0.42631   0.43685   0.44253   0.45395
 Alpha virt. eigenvalues --    0.51702   0.54378   0.61070   0.62576   0.70520
 Alpha virt. eigenvalues --    0.71073   0.72196   0.73768   0.76075   0.76177
 Alpha virt. eigenvalues --    0.76620   0.79010   0.79474   0.81070   0.82306
 Alpha virt. eigenvalues --    0.83713   0.85579   0.89117   0.91091   0.91343
 Alpha virt. eigenvalues --    0.92820   0.94745   0.97065   0.98284   0.98818
 Alpha virt. eigenvalues --    0.99710   1.00468   1.01911   1.03844   1.06577
 Alpha virt. eigenvalues --    1.08019   1.08221   1.09393   1.11664   1.12687
 Alpha virt. eigenvalues --    1.13026   1.13870   1.14856   1.15402   1.16045
 Alpha virt. eigenvalues --    1.16257   1.16619   1.18722   1.19116   1.20671
 Alpha virt. eigenvalues --    1.20953   1.23032   1.23885   1.25765   1.28153
 Alpha virt. eigenvalues --    1.34331   1.41722   1.42153   1.44890   1.46395
 Alpha virt. eigenvalues --    1.48456   1.54136   1.55360   1.57256   1.58165
 Alpha virt. eigenvalues --    1.61459   1.63397   1.66485   1.69046   1.69645
 Alpha virt. eigenvalues --    1.73917   1.82243   1.91111   1.93363   1.96231
 Alpha virt. eigenvalues --    1.98688   2.01467   2.02277   2.03942   2.08565
 Alpha virt. eigenvalues --    2.09706   2.10748   2.11744   2.13037   2.14903
 Alpha virt. eigenvalues --    2.15780   2.16940   2.19854   2.23666   2.28347
 Alpha virt. eigenvalues --    2.29590   2.30325   2.33235   2.35347   2.35688
 Alpha virt. eigenvalues --    2.35978   2.36098   2.38923   2.40264   2.41259
 Alpha virt. eigenvalues --    2.42195   2.43169   2.44154   2.45371   2.46084
 Alpha virt. eigenvalues --    2.47201   2.49167   2.49622   2.51174   2.54099
 Alpha virt. eigenvalues --    2.57315   2.58365   2.61888   2.63241   2.64107
 Alpha virt. eigenvalues --    2.67127   2.68175   2.71776   2.73352   2.73474
 Alpha virt. eigenvalues --    2.75815   2.77410   2.80796   2.82634   2.85354
 Alpha virt. eigenvalues --    2.87137   2.89441   2.92178   2.93739   2.94867
 Alpha virt. eigenvalues --    2.97869   2.99094   3.00960   3.02677   3.05807
 Alpha virt. eigenvalues --    3.06402   3.07703   3.09315   3.13762   3.17093
 Alpha virt. eigenvalues --    3.17589   3.19238   3.20046   3.21242   3.22334
 Alpha virt. eigenvalues --    3.24167   3.25050   3.26607   3.27420   3.37866
 Alpha virt. eigenvalues --    3.40355   3.46023   3.46902   3.56200   3.58183
 Alpha virt. eigenvalues --    3.59499   3.62406   3.67928   3.75494   3.78622
 Alpha virt. eigenvalues --    3.80005   3.81570   3.82569   3.83286   3.83898
 Alpha virt. eigenvalues --    3.84750   3.86481   3.87645   3.89820   3.91558
 Alpha virt. eigenvalues --    3.97645   4.59389   4.63170   4.74472   4.82572
 Alpha virt. eigenvalues --    4.88928   4.92582   4.93409   5.07840   5.10766
 Alpha virt. eigenvalues --    5.17766
          Condensed to atoms (all electrons):
               1          2          3          4          5          6
     1  C    5.004768   0.411714   0.414473   0.337355  -0.056085   0.000011
     2  H    0.411714   0.572983  -0.028296  -0.038988   0.003071  -0.000005
     3  H    0.414473  -0.028296   0.587507  -0.046308  -0.004587  -0.000489
     4  C    0.337355  -0.038988  -0.046308   4.952603   0.351934  -0.045679
     5  C   -0.056085   0.003071  -0.004587   0.351934   4.891804   0.400946
     6  H    0.000011  -0.000005  -0.000489  -0.045679   0.400946   0.596034
     7  H   -0.003698  -0.000034   0.002378  -0.041506   0.397495  -0.037541
     8  H    0.003801  -0.000108   0.000106  -0.042765   0.407087  -0.027466
     9  C   -0.047991  -0.001860   0.002531   0.697840  -0.046054  -0.001011
    10  H    0.003272   0.000031  -0.000118  -0.037842  -0.006525   0.000135
    11  C   -0.007749  -0.002811   0.000160  -0.050271   0.003364  -0.000101
    12  H    0.000310  -0.000067  -0.000013  -0.000247  -0.000095   0.000017
    13  H   -0.001745  -0.001657   0.000030  -0.000691   0.000109  -0.000003
    14  H    0.000152   0.000184   0.000017  -0.000627  -0.000106  -0.000004
    15  C    0.000587   0.000200  -0.000015  -0.000018  -0.000000  -0.000000
    16  H   -0.000040   0.000022   0.000000   0.000001  -0.000000  -0.000000
    17  H    0.000130  -0.000135  -0.000002  -0.000005   0.000000   0.000000
    18  H   -0.000302  -0.000131  -0.000016  -0.000011  -0.000000   0.000000
    19  C   -0.004325   0.001388   0.000787   0.000041  -0.000003   0.000000
    20  C   -0.000099  -0.000043  -0.000004   0.000001  -0.000000  -0.000000
    21  H   -0.000005   0.000002   0.000000   0.000000  -0.000000   0.000000
    22  H   -0.000003  -0.000002   0.000003   0.000000  -0.000000  -0.000000
    23  H    0.000024  -0.000007  -0.000002  -0.000000   0.000000   0.000000
    24  C   -0.061827  -0.000504  -0.000900   0.006443  -0.000149  -0.000111
    25  H    0.000175   0.000111   0.001011  -0.000152   0.000010   0.000015
    26  C    0.332330  -0.041801  -0.046074  -0.055544  -0.000661   0.000609
    27  H   -0.042369  -0.003118   0.004477  -0.001813   0.000243  -0.000015
    28  H   -0.046841   0.004515  -0.001931  -0.002075  -0.000289   0.000197
               7          8          9         10         11         12
     1  C   -0.003698   0.003801  -0.047991   0.003272  -0.007749   0.000310
     2  H   -0.000034  -0.000108  -0.001860   0.000031  -0.002811  -0.000067
     3  H    0.002378   0.000106   0.002531  -0.000118   0.000160  -0.000013
     4  C   -0.041506  -0.042765   0.697840  -0.037842  -0.050271  -0.000247
     5  C    0.397495   0.407087  -0.046054  -0.006525   0.003364  -0.000095
     6  H   -0.037541  -0.027466  -0.001011   0.000135  -0.000101   0.000017
     7  H    0.591921  -0.026764  -0.000373   0.000216  -0.000105  -0.000004
     8  H   -0.026764   0.568858  -0.002890   0.002385   0.000132  -0.000006
     9  C   -0.000373  -0.002890   4.938971   0.404494   0.340494  -0.041805
    10  H    0.000216   0.002385   0.404494   0.558671  -0.041278  -0.001264
    11  C   -0.000105   0.000132   0.340494  -0.041278   4.900974   0.402169
    12  H   -0.000004  -0.000006  -0.041805  -0.001264   0.402169   0.586720
    13  H    0.000002   0.000005  -0.043903   0.003299   0.409079  -0.029956
    14  H    0.000017  -0.000006  -0.041523  -0.001122   0.401144  -0.035462
    15  C    0.000000  -0.000000   0.000015  -0.000000  -0.000147  -0.000015
    16  H    0.000000   0.000000   0.000000   0.000000   0.000003  -0.000000
    17  H   -0.000000  -0.000000   0.000000  -0.000000  -0.000009   0.000000
    18  H   -0.000000   0.000000  -0.000045   0.000000   0.000074   0.000114
    19  C    0.000000   0.000000  -0.000001   0.000000   0.000013   0.000001
    20  C   -0.000000   0.000000  -0.000000   0.000000  -0.000000  -0.000000
    21  H    0.000000   0.000000   0.000000   0.000000   0.000000  -0.000000
    22  H   -0.000000   0.000000  -0.000000   0.000000   0.000000  -0.000000
    23  H   -0.000000  -0.000000   0.000000  -0.000000  -0.000000   0.000000
    24  C    0.000004   0.000004   0.000114   0.000002  -0.000031  -0.000009
    25  H   -0.000001  -0.000000  -0.000002  -0.000000   0.000000   0.000000
    26  C    0.000086  -0.000109  -0.004911  -0.000113   0.000577   0.000163
    27  H    0.000006  -0.000005   0.001406  -0.000046  -0.000082  -0.000140
    28  H    0.000058  -0.000050   0.000760   0.000001  -0.000033  -0.000000
              13         14         15         16         17         18
     1  C   -0.001745   0.000152   0.000587  -0.000040   0.000130  -0.000302
     2  H   -0.001657   0.000184   0.000200   0.000022  -0.000135  -0.000131
     3  H    0.000030   0.000017  -0.000015   0.000000  -0.000002  -0.000016
     4  C   -0.000691  -0.000627  -0.000018   0.000001  -0.000005  -0.000011
     5  C    0.000109  -0.000106  -0.000000  -0.000000   0.000000  -0.000000
     6  H   -0.000003  -0.000004  -0.000000  -0.000000   0.000000   0.000000
     7  H    0.000002   0.000017   0.000000   0.000000  -0.000000  -0.000000
     8  H    0.000005  -0.000006  -0.000000   0.000000  -0.000000   0.000000
     9  C   -0.043903  -0.041523   0.000015   0.000000   0.000000  -0.000045
    10  H    0.003299  -0.001122  -0.000000   0.000000  -0.000000   0.000000
    11  C    0.409079   0.401144  -0.000147   0.000003  -0.000009   0.000074
    12  H   -0.029956  -0.035462  -0.000015  -0.000000   0.000000   0.000114
    13  H    0.577164  -0.027132  -0.000000  -0.000008   0.000079   0.000412
    14  H   -0.027132   0.583648   0.000004   0.000000  -0.000000  -0.000013
    15  C   -0.000000   0.000004   4.907254   0.399852   0.401208   0.407154
    16  H   -0.000008   0.000000   0.399852   0.584669  -0.035759  -0.026060
    17  H    0.000079  -0.000000   0.401208  -0.035759   0.587442  -0.028659
    18  H    0.000412  -0.000013   0.407154  -0.026060  -0.028659   0.568221
    19  C   -0.000026  -0.000000   0.350332  -0.043537  -0.043385  -0.037848
    20  C    0.000000   0.000000  -0.064931  -0.002223  -0.002632   0.003725
    21  H   -0.000000   0.000000  -0.001201   0.002766  -0.000476  -0.000031
    22  H   -0.000000  -0.000000   0.003785  -0.000053  -0.000032  -0.000113
    23  H   -0.000000  -0.000000  -0.001975  -0.000456   0.002756  -0.000068
    24  C    0.000026   0.000002  -0.044248  -0.000365  -0.000031  -0.003253
    25  H   -0.000002   0.000000   0.003528  -0.000121  -0.000121   0.000061
    26  C   -0.000737  -0.000037  -0.008144   0.000117   0.000367  -0.002069
    27  H   -0.000475   0.000037  -0.002693   0.000113  -0.000076  -0.001675
    28  H   -0.000010  -0.000000   0.000195   0.000021  -0.000014   0.000058
              19         20         21         22         23         24
     1  C   -0.004325  -0.000099  -0.000005  -0.000003   0.000024  -0.061827
     2  H    0.001388  -0.000043   0.000002  -0.000002  -0.000007  -0.000504
     3  H    0.000787  -0.000004   0.000000   0.000003  -0.000002  -0.000900
     4  C    0.000041   0.000001   0.000000   0.000000  -0.000000   0.006443
     5  C   -0.000003  -0.000000  -0.000000  -0.000000   0.000000  -0.000149
     6  H    0.000000  -0.000000   0.000000  -0.000000   0.000000  -0.000111
     7  H    0.000000  -0.000000   0.000000  -0.000000  -0.000000   0.000004
     8  H    0.000000   0.000000   0.000000   0.000000  -0.000000   0.000004
     9  C   -0.000001  -0.000000   0.000000  -0.000000   0.000000   0.000114
    10  H    0.000000   0.000000   0.000000   0.000000  -0.000000   0.000002
    11  C    0.000013  -0.000000   0.000000   0.000000  -0.000000  -0.000031
    12  H    0.000001  -0.000000  -0.000000  -0.000000   0.000000  -0.000009
    13  H   -0.000026   0.000000  -0.000000  -0.000000  -0.000000   0.000026
    14  H   -0.000000   0.000000   0.000000  -0.000000  -0.000000   0.000002
    15  C    0.350332  -0.064931  -0.001201   0.003785  -0.001975  -0.044248
    16  H   -0.043537  -0.002223   0.002766  -0.000053  -0.000456  -0.000365
    17  H   -0.043385  -0.002632  -0.000476  -0.000032   0.002756  -0.000031
    18  H   -0.037848   0.003725  -0.000031  -0.000113  -0.000068  -0.003253
    19  C    4.914192   0.353753  -0.044274  -0.041639  -0.043899   0.697734
    20  C    0.353753   4.900112   0.398811   0.406218   0.398238  -0.044415
    21  H   -0.044274   0.398811   0.593607  -0.026549  -0.037806  -0.001270
    22  H   -0.041639   0.406218  -0.026549   0.566018  -0.026703  -0.002632
    23  H   -0.043899   0.398238  -0.037806  -0.026703   0.594542  -0.000422
    24  C    0.697734  -0.044415  -0.001270  -0.002632  -0.000422   4.962746
    25  H   -0.038449  -0.006963   0.000187   0.002335   0.000182   0.403391
    26  C   -0.050100   0.003126  -0.000131   0.000148  -0.000068   0.338699
    27  H    0.000438   0.000051   0.000007   0.000007  -0.000005  -0.044060
    28  H    0.001583  -0.000094   0.000009  -0.000010  -0.000002  -0.041395
              25         26         27         28
     1  C    0.000175   0.332330  -0.042369  -0.046841
     2  H    0.000111  -0.041801  -0.003118   0.004515
     3  H    0.001011  -0.046074   0.004477  -0.001931
     4  C   -0.000152  -0.055544  -0.001813  -0.002075
     5  C    0.000010  -0.000661   0.000243  -0.000289
     6  H    0.000015   0.000609  -0.000015   0.000197
     7  H   -0.000001   0.000086   0.000006   0.000058
     8  H   -0.000000  -0.000109  -0.000005  -0.000050
     9  C   -0.000002  -0.004911   0.001406   0.000760
    10  H   -0.000000  -0.000113  -0.000046   0.000001
    11  C    0.000000   0.000577  -0.000082  -0.000033
    12  H    0.000000   0.000163  -0.000140  -0.000000
    13  H   -0.000002  -0.000737  -0.000475  -0.000010
    14  H    0.000000  -0.000037   0.000037  -0.000000
    15  C    0.003528  -0.008144  -0.002693   0.000195
    16  H   -0.000121   0.000117   0.000113   0.000021
    17  H   -0.000121   0.000367  -0.000076  -0.000014
    18  H    0.000061  -0.002069  -0.001675   0.000058
    19  C   -0.038449  -0.050100   0.000438   0.001583
    20  C   -0.006963   0.003126   0.000051  -0.000094
    21  H    0.000187  -0.000131   0.000007   0.000009
    22  H    0.002335   0.000148   0.000007  -0.000010
    23  H    0.000182  -0.000068  -0.000005  -0.000002
    24  C    0.403391   0.338699  -0.044060  -0.041395
    25  H    0.557389  -0.039113   0.003152  -0.003424
    26  C   -0.039113   4.979543   0.415850   0.413482
    27  H    0.003152   0.415850   0.575347  -0.028362
    28  H   -0.003424   0.413482  -0.028362   0.585267
 Mulliken charges:
               1
     1  C   -0.236021
     2  H    0.125346
     3  H    0.115272
     4  C    0.018322
     5  C   -0.341505
     6  H    0.114461
     7  H    0.117845
     8  H    0.117792
     9  C   -0.154256
    10  H    0.115801
    11  C   -0.355567
    12  H    0.119588
    13  H    0.116140
    14  H    0.120830
    15  C   -0.350727
    16  H    0.121058
    17  H    0.119352
    18  H    0.120474
    19  C    0.027221
    20  C   -0.342631
    21  H    0.116356
    22  H    0.119222
    23  H    0.115672
    24  C   -0.163542
    25  H    0.116803
    26  C   -0.235486
    27  H    0.123802
    28  H    0.118380
 Sum of Mulliken charges =  -0.00000
 Mulliken charges with hydrogens summed into heavy atoms:
               1
     1  C    0.004596
     4  C    0.018322
     5  C    0.008593
     9  C   -0.038454
    11  C    0.000991
    15  C    0.010156
    19  C    0.027221
    20  C    0.008618
    24  C   -0.046740
    26  C    0.006696
 Electronic spatial extent (au):  <R**2>=           2384.0077
 Charge=              0.0000 electrons
 Dipole moment (field-independent basis, Debye):
    X=              0.3027    Y=              0.1253    Z=              0.0460  Tot=              0.3308
 Quadrupole moment (field-independent basis, Debye-Ang):
   XX=            -64.3023   YY=            -63.2901   ZZ=            -67.3956
   XY=              0.7521   XZ=              1.2367   YZ=             -0.3487
 Traceless Quadrupole moment (field-independent basis, Debye-Ang):
   XX=              0.6937   YY=              1.7059   ZZ=             -2.3996
   XY=              0.7521   XZ=              1.2367   YZ=             -0.3487
 Octapole moment (field-independent basis, Debye-Ang**2):
  XXX=              2.6683  YYY=             -2.9989  ZZZ=              0.8999  XYY=             -0.6416
  XXY=              4.0909  XXZ=             -2.0918  XZZ=              1.2120  YZZ=              1.4955
  YYZ=              0.6111  XYZ=             -0.3641
 Hexadecapole moment (field-independent basis, Debye-Ang**3):
 XXXX=          -2435.7190 YYYY=           -693.4921 ZZZZ=           -166.6416 XXXY=              2.3047
 XXXZ=             14.7514 YYYX=            -11.0526 YYYZ=             -1.4215 ZZZX=              2.8119
 ZZZY=             -0.6410 XXYY=           -520.1250 XXZZ=           -449.2344 YYZZ=           -138.3649
 XXYZ=             -4.2785 YYXZ=              0.5785 ZZXY=              5.9188
 N-N= 5.190879201885D+02 E-N=-1.942888579527D+03  KE= 3.887471638102D+02
 No NMR shielding tensors so no spin-rotation constants.
 Leave Link  601 at Fri Sep 17 15:40:24 2021, MaxMem=   524288000 cpu:               0.2 elap:               0.2
 (Enter /opt/gaussian/g16_legacy/l9999.exe)
 1\1\GINC-TRUENO95\FOpt\RMP2-FC\6-31G(d,p)\C10H18\JRAMOS\17-Sep-2021\0\
 \#p opt mp2/6-31g(d,p)\\Conformer number 3138. Energy MM = 23.242 kcal
 /mol\\0,1\C,-0.9358619111,-0.2227684227,0.6660869656\H,-0.7000809601,0
 .8406529757,0.7297885002\H,-0.9917053924,-0.5854827056,1.6965274147\C,
 -2.2590304974,-0.456176138,-0.0186288006\C,-3.0166660868,-1.6749824269
 ,0.432980194\H,-2.4024386038,-2.57364729,0.3424085259\H,-3.2998147364,
 -1.5886695378,1.4842660421\H,-3.9220288965,-1.8239803758,-0.1540776934
 \C,-2.7304689064,0.3254753019,-1.0079307731\H,-3.6833920845,0.05431279
 99,-1.4539705243\C,-2.0792495748,1.5493475171,-1.5771341491\H,-1.89870
 27944,1.4272860152,-2.6468116166\H,-1.1250647618,1.7689884497,-1.10355
 81181\H,-2.7222404111,2.4239749018,-1.4615866366\C,2.4352856185,1.1563
 586455,-0.6172450918\H,3.2779212062,1.0329758631,-1.3012910782\H,2.522
 0795302,2.1565021435,-0.1871111363\H,1.5174402105,1.1201912472,-1.1986
 188044\C,2.4824156938,0.1192979843,0.4704809863\C,3.717556536,0.162191
 8253,1.3272402577\H,4.6156211347,0.0215767376,0.721433534\H,3.69916148
 52,-0.6101209105,2.094673062\H,3.816585776,1.132306429,1.8194587284\C,
 1.5190611864,-0.7950776269,0.6910059029\H,1.6593553418,-1.4786227326,1
 .5246223932\C,0.2242331744,-0.9380540421,-0.0525419488\H,0.3002031566,
 -0.5450637079,-1.0671457102\H,-0.0200744327,-1.9988929199,-0.153420425
 6\\Version=EM64L-G16RevA.03\State=1-A\HF=-389.1567535\MP2=-390.5738646
 \RMSD=5.120e-09\RMSF=3.176e-06\Dipole=0.0922878,0.0694163,-0.0134089\P
 G=C01 [X(C10H18)]\\@


 A COMPLEXITY IS MERELY A DISARRANGEMENT OF SIMPLICITIES.

                                    -- G. O. ABELL IN "EXPLORATION OF THE UNIVERSE"
 Job cpu time:       0 days  0 hours 42 minutes 13.0 seconds.
 Elapsed time:       0 days  0 hours 42 minutes 17.2 seconds.
 File lengths (MBytes):  RWF=     32 Int=      0 D2E=      0 Chk=      7 Scr=      1
 Normal termination of Gaussian 16 at Fri Sep 17 15:40:24 2021.
