 Entering Gaussian System, Link 0=/opt/gaussian/g16_legacy/g16
 Input=01-IsoP_2319_gaussian.com
 Output=01-IsoP_2319_gaussian.log
 Initial command:
 /opt/gaussian/g16_legacy/l1.exe "/scratch-local/jramos/2661353/Gau-29953.inp" -scrdir="/scratch-local/jramos/2661353/"
 Entering Link 1 = /opt/gaussian/g16_legacy/l1.exe PID=     29974.
  
 Copyright (c) 1988,1990,1992,1993,1995,1998,2003,2009,2016,
            Gaussian, Inc.  All Rights Reserved.
  
 This is part of the Gaussian(R) 16 program.  It is based on
 the Gaussian(R) 09 system (copyright 2009, Gaussian, Inc.),
 the Gaussian(R) 03 system (copyright 2003, Gaussian, Inc.),
 the Gaussian(R) 98 system (copyright 1998, Gaussian, Inc.),
 the Gaussian(R) 94 system (copyright 1995, Gaussian, Inc.),
 the Gaussian 92(TM) system (copyright 1992, Gaussian, Inc.),
 the Gaussian 90(TM) system (copyright 1990, Gaussian, Inc.),
 the Gaussian 88(TM) system (copyright 1988, Gaussian, Inc.),
 the Gaussian 86(TM) system (copyright 1986, Carnegie Mellon
 University), and the Gaussian 82(TM) system (copyright 1983,
 Carnegie Mellon University). Gaussian is a federally registered
 trademark of Gaussian, Inc.
  
 This software contains proprietary and confidential information,
 including trade secrets, belonging to Gaussian, Inc.
  
 This software is provided under written license and may be
 used, copied, transmitted, or stored only in accord with that
 written license.
  
 The following legend is applicable only to US Government
 contracts under FAR:
  
                    RESTRICTED RIGHTS LEGEND
  
 Use, reproduction and disclosure by the US Government is
 subject to restrictions as set forth in subparagraphs (a)
 and (c) of the Commercial Computer Software - Restricted
 Rights clause in FAR 52.227-19.
  
 Gaussian, Inc.
 340 Quinnipiac St., Bldg. 40, Wallingford CT 06492
  
  
 ---------------------------------------------------------------
 Warning -- This program may not be used in any manner that
 competes with the business of Gaussian, Inc. or will provide
 assistance to any competitor of Gaussian, Inc.  The licensee
 of this program is prohibited from giving any competitor of
 Gaussian, Inc. access to this program.  By using this program,
 the user acknowledges that Gaussian, Inc. is engaged in the
 business of creating and licensing software in the field of
 computational chemistry and represents and warrants to the
 licensee that it is not a competitor of Gaussian, Inc. and that
 it will not use this program in any manner prohibited above.
 ---------------------------------------------------------------
  

 Cite this work as:
 Gaussian 16, Revision A.03,
 M. J. Frisch, G. W. Trucks, H. B. Schlegel, G. E. Scuseria, 
 M. A. Robb, J. R. Cheeseman, G. Scalmani, V. Barone, 
 G. A. Petersson, H. Nakatsuji, X. Li, M. Caricato, A. V. Marenich, 
 J. Bloino, B. G. Janesko, R. Gomperts, B. Mennucci, H. P. Hratchian, 
 J. V. Ortiz, A. F. Izmaylov, J. L. Sonnenberg, D. Williams-Young, 
 F. Ding, F. Lipparini, F. Egidi, J. Goings, B. Peng, A. Petrone, 
 T. Henderson, D. Ranasinghe, V. G. Zakrzewski, J. Gao, N. Rega, 
 G. Zheng, W. Liang, M. Hada, M. Ehara, K. Toyota, R. Fukuda, 
 J. Hasegawa, M. Ishida, T. Nakajima, Y. Honda, O. Kitao, H. Nakai, 
 T. Vreven, K. Throssell, J. A. Montgomery, Jr., J. E. Peralta, 
 F. Ogliaro, M. J. Bearpark, J. J. Heyd, E. N. Brothers, K. N. Kudin, 
 V. N. Staroverov, T. A. Keith, R. Kobayashi, J. Normand, 
 K. Raghavachari, A. P. Rendell, J. C. Burant, S. S. Iyengar, 
 J. Tomasi, M. Cossi, J. M. Millam, M. Klene, C. Adamo, R. Cammi, 
 J. W. Ochterski, R. L. Martin, K. Morokuma, O. Farkas, 
 J. B. Foresman, and D. J. Fox, Gaussian, Inc., Wallingford CT, 2016.
 
 ******************************************
 Gaussian 16:  EM64L-G16RevA.03 25-Dec-2016
                17-Sep-2021 
 ******************************************
 %chk=01-IsoP_2319_gaussian.chk
 %nproc=1
 Will use up to    1 processors via shared memory.
 %mem=4000Mb
 ---------------------
 #p opt mp2/6-31g(d,p)
 ---------------------
 1/18=20,19=15,38=1/1,3;
 2/9=110,12=2,17=6,18=5,40=1/2;
 3/5=1,6=6,7=101,11=9,25=1,30=1,71=1/1,2,3;
 4//1;
 5/5=2,38=5/2;
 8/6=4,10=2/1;
 9/15=2,16=-3/6;
 10/5=1/2;
 6/7=2,8=2,9=2,10=2/1;
 7/12=2/1,2,3,16;
 1/18=20,19=15/3(2);
 2/9=110/2;
 99//99;
 2/9=110/2;
 3/5=1,6=6,7=101,11=9,25=1,30=1,71=1/1,2,3;
 4/5=5,16=3,69=1/1;
 5/5=2,38=5/2;
 8/6=4,10=2/1;
 9/15=2,16=-3/6;
 10/5=1/2;
 7/12=2/1,2,3,16;
 1/18=20,19=15/3(-8);
 2/9=110/2;
 6/7=2,8=2,9=2,10=2/1;
 99//99;
 Leave Link    1 at Fri Sep 17 13:32:38 2021, MaxMem=   524288000 cpu:               0.0 elap:               0.3
 (Enter /opt/gaussian/g16_legacy/l101.exe)
 --------------------------------------------------
 Conformer number 2319. Energy MM = 23.242 kcal/mol
 --------------------------------------------------
 Symbolic Z-matrix:
 Charge =  0 Multiplicity = 1
 C                     0.6389    0.685     0.8993 
 H                    -0.1836    0.2417    1.4732 
 H                     0.6128    1.7541    1.15 
 C                     1.968     0.1071    1.3399 
 C                     3.151     1.0258    1.1717 
 H                     4.0848    0.5664    1.513 
 H                     3.0037    1.944     1.7497 
 H                     3.2808    1.2938    0.1185 
 C                     2.125    -1.1218    1.8706 
 H                     3.1231   -1.4339    2.1768 
 C                     1.0719   -2.163     2.0834 
 H                     0.9228   -2.3271    3.1549 
 H                     0.1091   -1.907     1.6357 
 H                     1.398    -3.1077    1.6363 
 C                    -3.3021    1.1749   -1.7338 
 H                    -3.6289    0.8169   -2.7156 
 H                    -4.1178    1.0251   -1.0188 
 H                    -3.1253    2.2525   -1.8153 
 C                    -2.0734    0.4253   -1.289 
 C                    -2.265    -1.0617   -1.1708 
 H                    -2.4408   -1.4982   -2.1593 
 H                    -3.1327   -1.2795   -0.5387 
 H                    -1.4114   -1.5753   -0.7226 
 C                    -0.9278    1.0818   -1.0206 
 H                    -0.9146    2.1668   -1.1246 
 C                     0.3922    0.4921   -0.6003 
 H                     0.4608   -0.5684   -0.8642 
 H                     1.1806    0.9904   -1.1786 
 
 ITRead=  0  0  0  0  0  0  0  0  0  0  0  0  0  0  0  0  0  0  0  0
 ITRead=  0  0  0  0  0  0  0  0
 MicOpt= -1 -1 -1 -1 -1 -1 -1 -1 -1 -1 -1 -1 -1 -1 -1 -1 -1 -1 -1 -1
 MicOpt= -1 -1 -1 -1 -1 -1 -1 -1
 NAtoms=     28 NQM=       28 NQMF=       0 NMMI=      0 NMMIF=      0
                NMic=       0 NMicF=      0.
                    Isotopes and Nuclear Properties:
 (Nuclear quadrupole moments (NQMom) in fm**2, nuclear magnetic moments (NMagM)
  in nuclear magnetons)

  Atom         1           2           3           4           5           6           7           8           9          10
 IAtWgt=          12           1           1          12          12           1           1           1          12           1
 AtmWgt=  12.0000000   1.0078250   1.0078250  12.0000000  12.0000000   1.0078250   1.0078250   1.0078250  12.0000000   1.0078250
 NucSpn=           0           1           1           0           0           1           1           1           0           1
 AtZEff=  -0.0000000  -0.0000000  -0.0000000  -0.0000000  -0.0000000  -0.0000000  -0.0000000  -0.0000000  -0.0000000  -0.0000000
 NQMom=    0.0000000   0.0000000   0.0000000   0.0000000   0.0000000   0.0000000   0.0000000   0.0000000   0.0000000   0.0000000
 NMagM=    0.0000000   2.7928460   2.7928460   0.0000000   0.0000000   2.7928460   2.7928460   2.7928460   0.0000000   2.7928460
 AtZNuc=   6.0000000   1.0000000   1.0000000   6.0000000   6.0000000   1.0000000   1.0000000   1.0000000   6.0000000   1.0000000

  Atom        11          12          13          14          15          16          17          18          19          20
 IAtWgt=          12           1           1           1          12           1           1           1          12          12
 AtmWgt=  12.0000000   1.0078250   1.0078250   1.0078250  12.0000000   1.0078250   1.0078250   1.0078250  12.0000000  12.0000000
 NucSpn=           0           1           1           1           0           1           1           1           0           0
 AtZEff=  -0.0000000  -0.0000000  -0.0000000  -0.0000000  -0.0000000  -0.0000000  -0.0000000  -0.0000000  -0.0000000  -0.0000000
 NQMom=    0.0000000   0.0000000   0.0000000   0.0000000   0.0000000   0.0000000   0.0000000   0.0000000   0.0000000   0.0000000
 NMagM=    0.0000000   2.7928460   2.7928460   2.7928460   0.0000000   2.7928460   2.7928460   2.7928460   0.0000000   0.0000000
 AtZNuc=   6.0000000   1.0000000   1.0000000   1.0000000   6.0000000   1.0000000   1.0000000   1.0000000   6.0000000   6.0000000

  Atom        21          22          23          24          25          26          27          28
 IAtWgt=           1           1           1          12           1          12           1           1
 AtmWgt=   1.0078250   1.0078250   1.0078250  12.0000000   1.0078250  12.0000000   1.0078250   1.0078250
 NucSpn=           1           1           1           0           1           0           1           1
 AtZEff=  -0.0000000  -0.0000000  -0.0000000  -0.0000000  -0.0000000  -0.0000000  -0.0000000  -0.0000000
 NQMom=    0.0000000   0.0000000   0.0000000   0.0000000   0.0000000   0.0000000   0.0000000   0.0000000
 NMagM=    2.7928460   2.7928460   2.7928460   0.0000000   2.7928460   0.0000000   2.7928460   2.7928460
 AtZNuc=   1.0000000   1.0000000   1.0000000   6.0000000   1.0000000   6.0000000   1.0000000   1.0000000
 Leave Link  101 at Fri Sep 17 13:32:39 2021, MaxMem=   524288000 cpu:               0.3 elap:               0.3
 (Enter /opt/gaussian/g16_legacy/l103.exe)

 GradGradGradGradGradGradGradGradGradGradGradGradGradGradGradGradGradGrad
 Berny optimization.
 Initialization pass.
                           ----------------------------
                           !    Initial Parameters    !
                           ! (Angstroms and Degrees)  !
 --------------------------                            --------------------------
 ! Name  Definition              Value          Derivative Info.                !
 --------------------------------------------------------------------------------
 ! R1    R(1,2)                  1.0965         estimate D2E/DX2                !
 ! R2    R(1,3)                  1.0984         estimate D2E/DX2                !
 ! R3    R(1,4)                  1.5148         estimate D2E/DX2                !
 ! R4    R(1,26)                 1.532          estimate D2E/DX2                !
 ! R5    R(4,5)                  1.5072         estimate D2E/DX2                !
 ! R6    R(4,9)                  1.3478         estimate D2E/DX2                !
 ! R7    R(5,6)                  1.0952         estimate D2E/DX2                !
 ! R8    R(5,7)                  1.0949         estimate D2E/DX2                !
 ! R9    R(5,8)                  1.0945         estimate D2E/DX2                !
 ! R10   R(9,10)                 1.0897         estimate D2E/DX2                !
 ! R11   R(9,11)                 1.4961         estimate D2E/DX2                !
 ! R12   R(11,12)                1.0942         estimate D2E/DX2                !
 ! R13   R(11,13)                1.0922         estimate D2E/DX2                !
 ! R14   R(11,14)                1.0949         estimate D2E/DX2                !
 ! R15   R(15,16)                1.0949         estimate D2E/DX2                !
 ! R16   R(15,17)                1.095          estimate D2E/DX2                !
 ! R17   R(15,18)                1.095          estimate D2E/DX2                !
 ! R18   R(15,19)                1.5065         estimate D2E/DX2                !
 ! R19   R(19,20)                1.5039         estimate D2E/DX2                !
 ! R20   R(19,24)                1.3474         estimate D2E/DX2                !
 ! R21   R(20,21)                1.0948         estimate D2E/DX2                !
 ! R22   R(20,22)                1.0954         estimate D2E/DX2                !
 ! R23   R(20,23)                1.0924         estimate D2E/DX2                !
 ! R24   R(24,25)                1.0901         estimate D2E/DX2                !
 ! R25   R(24,26)                1.5056         estimate D2E/DX2                !
 ! R26   R(26,27)                1.095          estimate D2E/DX2                !
 ! R27   R(26,28)                1.0974         estimate D2E/DX2                !
 ! A1    A(2,1,3)              104.8452         estimate D2E/DX2                !
 ! A2    A(2,1,4)              110.5899         estimate D2E/DX2                !
 ! A3    A(2,1,26)             109.9151         estimate D2E/DX2                !
 ! A4    A(3,1,4)              109.0132         estimate D2E/DX2                !
 ! A5    A(3,1,26)             110.0079         estimate D2E/DX2                !
 ! A6    A(4,1,26)             112.2086         estimate D2E/DX2                !
 ! A7    A(1,4,5)              115.0662         estimate D2E/DX2                !
 ! A8    A(1,4,9)              124.3742         estimate D2E/DX2                !
 ! A9    A(5,4,9)              120.5491         estimate D2E/DX2                !
 ! A10   A(4,5,6)              112.2562         estimate D2E/DX2                !
 ! A11   A(4,5,7)              110.2821         estimate D2E/DX2                !
 ! A12   A(4,5,8)              110.47           estimate D2E/DX2                !
 ! A13   A(6,5,7)              107.5748         estimate D2E/DX2                !
 ! A14   A(6,5,8)              107.5456         estimate D2E/DX2                !
 ! A15   A(7,5,8)              108.5775         estimate D2E/DX2                !
 ! A16   A(4,9,10)             118.5878         estimate D2E/DX2                !
 ! A17   A(4,9,11)             127.4856         estimate D2E/DX2                !
 ! A18   A(10,9,11)            113.9188         estimate D2E/DX2                !
 ! A19   A(9,11,12)            109.8505         estimate D2E/DX2                !
 ! A20   A(9,11,13)            113.5194         estimate D2E/DX2                !
 ! A21   A(9,11,14)            109.436          estimate D2E/DX2                !
 ! A22   A(12,11,13)           108.447          estimate D2E/DX2                !
 ! A23   A(12,11,14)           108.1241         estimate D2E/DX2                !
 ! A24   A(13,11,14)           107.3019         estimate D2E/DX2                !
 ! A25   A(16,15,17)           108.5681         estimate D2E/DX2                !
 ! A26   A(16,15,18)           107.6501         estimate D2E/DX2                !
 ! A27   A(16,15,19)           110.2118         estimate D2E/DX2                !
 ! A28   A(17,15,18)           107.6676         estimate D2E/DX2                !
 ! A29   A(17,15,19)           110.2862         estimate D2E/DX2                !
 ! A30   A(18,15,19)           112.3306         estimate D2E/DX2                !
 ! A31   A(15,19,20)           114.2852         estimate D2E/DX2                !
 ! A32   A(15,19,24)           120.6533         estimate D2E/DX2                !
 ! A33   A(20,19,24)           125.0588         estimate D2E/DX2                !
 ! A34   A(19,20,21)           110.103          estimate D2E/DX2                !
 ! A35   A(19,20,22)           110.0513         estimate D2E/DX2                !
 ! A36   A(19,20,23)           113.4259         estimate D2E/DX2                !
 ! A37   A(21,20,22)           108.3337         estimate D2E/DX2                !
 ! A38   A(21,20,23)           107.9677         estimate D2E/DX2                !
 ! A39   A(22,20,23)           106.7823         estimate D2E/DX2                !
 ! A40   A(19,24,25)           118.4423         estimate D2E/DX2                !
 ! A41   A(19,24,26)           127.6044         estimate D2E/DX2                !
 ! A42   A(25,24,26)           113.946          estimate D2E/DX2                !
 ! A43   A(1,26,24)            111.4157         estimate D2E/DX2                !
 ! A44   A(1,26,27)            110.3516         estimate D2E/DX2                !
 ! A45   A(1,26,28)            110.0581         estimate D2E/DX2                !
 ! A46   A(24,26,27)           111.5297         estimate D2E/DX2                !
 ! A47   A(24,26,28)           107.7525         estimate D2E/DX2                !
 ! A48   A(27,26,28)           105.5307         estimate D2E/DX2                !
 ! D1    D(2,1,4,5)           -151.4091         estimate D2E/DX2                !
 ! D2    D(2,1,4,9)             27.4136         estimate D2E/DX2                !
 ! D3    D(3,1,4,5)            -36.6417         estimate D2E/DX2                !
 ! D4    D(3,1,4,9)            142.181          estimate D2E/DX2                !
 ! D5    D(26,1,4,5)            85.4703         estimate D2E/DX2                !
 ! D6    D(26,1,4,9)           -95.707          estimate D2E/DX2                !
 ! D7    D(2,1,26,24)           56.9343         estimate D2E/DX2                !
 ! D8    D(2,1,26,27)          -67.5327         estimate D2E/DX2                !
 ! D9    D(2,1,26,28)          176.398          estimate D2E/DX2                !
 ! D10   D(3,1,26,24)          -58.0221         estimate D2E/DX2                !
 ! D11   D(3,1,26,27)          177.5109         estimate D2E/DX2                !
 ! D12   D(3,1,26,28)           61.4416         estimate D2E/DX2                !
 ! D13   D(4,1,26,24)         -179.5662         estimate D2E/DX2                !
 ! D14   D(4,1,26,27)           55.9668         estimate D2E/DX2                !
 ! D15   D(4,1,26,28)          -60.1025         estimate D2E/DX2                !
 ! D16   D(1,4,5,6)            179.4341         estimate D2E/DX2                !
 ! D17   D(1,4,5,7)             59.4963         estimate D2E/DX2                !
 ! D18   D(1,4,5,8)            -60.5361         estimate D2E/DX2                !
 ! D19   D(9,4,5,6)              0.5624         estimate D2E/DX2                !
 ! D20   D(9,4,5,7)           -119.3754         estimate D2E/DX2                !
 ! D21   D(9,4,5,8)            120.5922         estimate D2E/DX2                !
 ! D22   D(1,4,9,10)          -178.597          estimate D2E/DX2                !
 ! D23   D(1,4,9,11)             2.4896         estimate D2E/DX2                !
 ! D24   D(5,4,9,10)             0.1647         estimate D2E/DX2                !
 ! D25   D(5,4,9,11)          -178.7487         estimate D2E/DX2                !
 ! D26   D(4,9,11,12)         -113.6849         estimate D2E/DX2                !
 ! D27   D(4,9,11,13)            7.9172         estimate D2E/DX2                !
 ! D28   D(4,9,11,14)          127.7535         estimate D2E/DX2                !
 ! D29   D(10,9,11,12)          67.3588         estimate D2E/DX2                !
 ! D30   D(10,9,11,13)        -171.039          estimate D2E/DX2                !
 ! D31   D(10,9,11,14)         -51.2028         estimate D2E/DX2                !
 ! D32   D(16,15,19,20)        -59.5947         estimate D2E/DX2                !
 ! D33   D(16,15,19,24)        120.9801         estimate D2E/DX2                !
 ! D34   D(17,15,19,20)         60.2634         estimate D2E/DX2                !
 ! D35   D(17,15,19,24)       -119.1618         estimate D2E/DX2                !
 ! D36   D(18,15,19,20)       -179.629          estimate D2E/DX2                !
 ! D37   D(18,15,19,24)          0.9458         estimate D2E/DX2                !
 ! D38   D(15,19,20,21)         66.5575         estimate D2E/DX2                !
 ! D39   D(15,19,20,22)        -52.7935         estimate D2E/DX2                !
 ! D40   D(15,19,20,23)       -172.3391         estimate D2E/DX2                !
 ! D41   D(24,19,20,21)       -114.0466         estimate D2E/DX2                !
 ! D42   D(24,19,20,22)        126.6024         estimate D2E/DX2                !
 ! D43   D(24,19,20,23)          7.0568         estimate D2E/DX2                !
 ! D44   D(15,19,24,25)          0.5255         estimate D2E/DX2                !
 ! D45   D(15,19,24,26)       -178.4295         estimate D2E/DX2                !
 ! D46   D(20,19,24,25)       -178.8344         estimate D2E/DX2                !
 ! D47   D(20,19,24,26)          2.2106         estimate D2E/DX2                !
 ! D48   D(19,24,26,1)        -103.3631         estimate D2E/DX2                !
 ! D49   D(19,24,26,27)         20.4388         estimate D2E/DX2                !
 ! D50   D(19,24,26,28)        135.8133         estimate D2E/DX2                !
 ! D51   D(25,24,26,1)          77.6423         estimate D2E/DX2                !
 ! D52   D(25,24,26,27)       -158.5558         estimate D2E/DX2                !
 ! D53   D(25,24,26,28)        -43.1813         estimate D2E/DX2                !
 --------------------------------------------------------------------------------
 Trust Radius=3.00D-01 FncErr=1.00D-07 GrdErr=1.00D-07 EigMax=2.50D+02 EigMin=1.00D-04
 Number of steps in this run=    138 maximum allowed number of steps=    168.
 GradGradGradGradGradGradGradGradGradGradGradGradGradGradGradGradGradGrad

 Leave Link  103 at Fri Sep 17 13:32:39 2021, MaxMem=   524288000 cpu:               0.0 elap:               0.0
 (Enter /opt/gaussian/g16_legacy/l202.exe)
                          Input orientation:                          
 ---------------------------------------------------------------------
 Center     Atomic      Atomic             Coordinates (Angstroms)
 Number     Number       Type             X           Y           Z
 ---------------------------------------------------------------------
      1          6           0        0.638900    0.685000    0.899300
      2          1           0       -0.183600    0.241700    1.473200
      3          1           0        0.612800    1.754100    1.150000
      4          6           0        1.968000    0.107100    1.339900
      5          6           0        3.151000    1.025800    1.171700
      6          1           0        4.084800    0.566400    1.513000
      7          1           0        3.003700    1.944000    1.749700
      8          1           0        3.280800    1.293800    0.118500
      9          6           0        2.125000   -1.121800    1.870600
     10          1           0        3.123100   -1.433900    2.176800
     11          6           0        1.071900   -2.163000    2.083400
     12          1           0        0.922800   -2.327100    3.154900
     13          1           0        0.109100   -1.907000    1.635700
     14          1           0        1.398000   -3.107700    1.636300
     15          6           0       -3.302100    1.174900   -1.733800
     16          1           0       -3.628900    0.816900   -2.715600
     17          1           0       -4.117800    1.025100   -1.018800
     18          1           0       -3.125300    2.252500   -1.815300
     19          6           0       -2.073400    0.425300   -1.289000
     20          6           0       -2.265000   -1.061700   -1.170800
     21          1           0       -2.440800   -1.498200   -2.159300
     22          1           0       -3.132700   -1.279500   -0.538700
     23          1           0       -1.411400   -1.575300   -0.722600
     24          6           0       -0.927800    1.081800   -1.020600
     25          1           0       -0.914600    2.166800   -1.124600
     26          6           0        0.392200    0.492100   -0.600300
     27          1           0        0.460800   -0.568400   -0.864200
     28          1           0        1.180600    0.990400   -1.178600
 ---------------------------------------------------------------------
                    Distance matrix (angstroms):
                    1          2          3          4          5
     1  C    0.000000
     2  H    1.096532   0.000000
     3  H    1.098411   1.739559   0.000000
     4  C    1.514795   2.159923   2.141317   0.000000
     5  C    2.549704   3.438789   2.640710   1.507246   0.000000
     6  H    3.502131   4.280917   3.687436   2.172962   1.095224
     7  H    2.810790   3.623970   2.472267   2.148211   1.094930
     8  H    2.821333   3.865772   2.897256   2.150237   1.094487
     9  C    2.533070   2.710478   3.328185   1.347771   2.480589
    10  H    3.506136   3.773189   4.185603   2.099843   2.657278
    11  C    3.114592   2.780505   4.052861   2.551302   3.914371
    12  H    3.773735   3.263582   4.557622   3.211230   4.487750
    13  H    2.746168   2.174624   3.727368   2.756738   4.250855
    14  H    3.937509   3.707633   4.948750   3.278367   4.513833
    15  C    4.764945   4.569546   4.896756   6.193689   7.078606
    16  H    5.594552   5.454080   5.814914   6.948107   7.818042
    17  H    5.140133   4.722469   5.254875   6.591142   7.591689
    18  H    4.898501   4.848830   4.797374   6.363940   7.058251
    19  C    3.494663   3.351836   3.863949   4.831695   5.806031
    20  C    3.971009   3.608575   4.647212   5.058458   6.259235
    21  H    4.858595   4.617062   5.554583   5.853111   6.981000
    22  H    4.489106   3.880590   5.107172   5.609718   6.908311
    23  H    3.455900   3.103308   4.323068   4.301711   5.582973
    24  C    2.509585   2.734710   2.745349   3.861044   4.630974
    25  H    2.950469   3.314956   2.770754   4.315728   4.806660
    26  C    1.531950   2.166483   2.169069   2.528981   3.322017
    27  H    2.170867   2.556355   3.078005   2.754271   3.731426
    28  H    2.168957   3.074677   2.515554   2.782635   3.067188
                    6          7          8          9         10
     6  H    0.000000
     7  H    1.767084   0.000000
     8  H    1.766397   1.777740   0.000000
     9  C    2.611267   3.191529   3.200133   0.000000
    10  H    2.316613   3.406887   3.420792   1.089664   0.000000
    11  C    4.105185   4.550896   4.548575   1.496129   2.178929
    12  H    4.589817   4.954496   5.281175   2.132477   2.568230
    13  H    4.683904   4.818911   4.754650   2.176136   3.098517
    14  H    4.553362   5.301962   5.022136   2.127727   2.463680
    15  C    8.091865   7.244957   6.839571   6.907962   7.961270
    16  H    8.800283   8.074691   7.483549   7.609149   8.636619
    17  H    8.596689   7.695761   7.490323   7.206273   8.287893
    18  H    8.118254   7.097115   6.759941   7.248269   8.280635
    19  C    6.767166   6.108772   5.603821   5.477513   6.517055
    20  C    7.083322   6.732217   6.161702   5.340957   6.354257
    21  H    7.767356   7.534693   6.761682   6.101500   7.054281
    22  H    7.727168   7.299530   6.941669   5.785586   6.821496
    23  H    6.308169   6.163672   5.563805   4.408682   5.384070
    24  C    5.640117   4.886169   4.365181   4.747049   5.741246
    25  H    5.874710   4.864598   4.461929   5.387512   6.337768
    26  C    4.255215   3.801374   3.082760   3.422370   4.345063
    27  H    4.480204   4.428427   3.519359   3.248837   4.133354
    28  H    3.982319   3.578825   2.487038   3.827650   4.572663
                   11         12         13         14         15
    11  C    0.000000
    12  H    1.094199   0.000000
    13  H    1.092225   1.773855   0.000000
    14  H    1.094851   1.772371   1.761518   0.000000
    15  C    6.696601   7.349365   5.699818   7.196470   0.000000
    16  H    7.348995   8.066318   6.350282   7.720832   1.094940
    17  H    6.835248   7.352868   5.788805   7.386044   1.095003
    18  H    7.232772   7.877991   6.298586   7.817003   1.095044
    19  C    5.288222   6.025045   4.330912   5.752398   1.506470
    20  C    4.789319   5.520415   3.771913   5.048118   2.528819
    21  H    5.548110   6.343627   4.590330   5.633246   2.840484
    22  H    5.033353   5.584553   3.953611   5.347914   2.735149
    23  H    3.792863   4.587886   2.825513   3.975599   3.487244
    24  C    4.915521   5.699133   4.130862   5.479085   2.480851
    25  H    5.743223   6.471885   5.026238   6.386786   2.656153
    26  C    3.835856   4.725564   3.291735   4.355752   3.924142
    27  H    3.406543   4.411308   2.857454   3.684954   4.237300
    28  H    4.538325   5.463652   4.178914   4.976480   4.520717
                   16         17         18         19         20
    16  H    0.000000
    17  H    1.778061   0.000000
    18  H    1.767795   1.768044   0.000000
    19  C    2.146653   2.147636   2.173050   0.000000
    20  C    2.788506   2.794764   3.484167   1.503945   0.000000
    21  H    2.660966   3.237300   3.828136   2.142955   1.094792
    22  H    3.062679   2.551881   3.755634   2.142757   1.095395
    23  H    3.822561   3.764893   4.333993   2.182075   1.092383
    24  C    3.199865   3.190504   2.613636   1.347379   2.530861
    25  H    3.423585   3.402229   2.317672   2.098253   3.499847
    26  C    4.555133   4.560628   4.116800   2.560850   3.130571
    27  H    4.698126   4.850435   4.660706   2.755007   2.786994
    28  H    5.052105   5.300923   4.532004   3.304549   4.010403
                   21         22         23         24         25
    21  H    0.000000
    22  H    1.775641   0.000000
    23  H    1.769100   1.756186   0.000000
    24  C    3.200345   3.266428   2.717141   0.000000
    25  H    4.102696   4.140076   3.796278   1.090053   0.000000
    26  C    3.797060   3.945539   2.746283   1.505589   2.187976
    27  H    3.310754   3.677615   2.130500   2.162367   3.072597
    28  H    4.502160   4.915941   3.675489   2.116286   2.403476
                   26         27         28
    26  C    0.000000
    27  H    1.094993   0.000000
    28  H    1.097410   1.745513   0.000000
 Stoichiometry    C10H18
 Framework group  C1[X(C10H18)]
 Deg. of freedom    78
 Full point group                 C1      NOp   1
 Largest Abelian subgroup         C1      NOp   1
 Largest concise Abelian subgroup C1      NOp   1
                         Standard orientation:                         
 ---------------------------------------------------------------------
 Center     Atomic      Atomic             Coordinates (Angstroms)
 Number     Number       Type             X           Y           Z
 ---------------------------------------------------------------------
      1          6           0       -0.793820   -0.586458    0.589166
      2          1           0       -0.484659    0.235258    1.246117
      3          1           0       -0.746037   -1.484355    1.220042
      4          6           0       -2.220900   -0.386930    0.122010
      5          6           0       -2.975649   -1.655050   -0.184609
      6          1           0       -4.003314   -1.458219   -0.508149
      7          1           0       -3.025258   -2.291700    0.704823
      8          1           0       -2.478747   -2.212211   -0.984960
      9          6           0       -2.820244    0.813897   -0.001646
     10          1           0       -3.860404    0.846692   -0.324693
     11          6           0       -2.215705    2.161874    0.234765
     12          1           0       -2.690787    2.635746    1.099065
     13          1           0       -1.137448    2.131982    0.406300
     14          1           0       -2.388778    2.797250   -0.639902
     15          6           0        3.965107   -0.407959    0.429657
     16          1           0        4.709106   -0.227493   -0.353153
     17          1           0        4.237046    0.181239    1.311659
     18          1           0        4.023661   -1.465995    0.705798
     19          6           0        2.593413   -0.018268   -0.056189
     20          6           0        2.466033    1.425926   -0.456100
     21          1           0        3.076393    1.626127   -1.342639
     22          1           0        2.815398    2.072723    0.355988
     23          1           0        1.439562    1.725951   -0.678910
     24          6           0        1.596363   -0.923599   -0.097400
     25          1           0        1.804001   -1.940146    0.236865
     26          6           0        0.185953   -0.715571   -0.581409
     27          1           0        0.111228    0.157092   -1.238588
     28          1           0       -0.084266   -1.577117   -1.205131
 ---------------------------------------------------------------------
 Rotational constants (GHZ):           2.2181178           0.5802280           0.4854205
 Leave Link  202 at Fri Sep 17 13:32:39 2021, MaxMem=   524288000 cpu:               0.0 elap:               0.0
 (Enter /opt/gaussian/g16_legacy/l301.exe)
 Standard basis: 6-31G(d,p) (6D, 7F)
 Ernie: Thresh=  0.10000D-02 Tol=  0.10000D-05 Strict=F.
 There are   240 symmetry adapted cartesian basis functions of A   symmetry.
 There are   240 symmetry adapted basis functions of A   symmetry.
   240 basis functions,   406 primitive gaussians,   240 cartesian basis functions
    39 alpha electrons       39 beta electrons
       nuclear repulsion energy       516.4345760694 Hartrees.
 IExCor=    0 DFT=F Ex=HF Corr=None ExCW=0 ScaHFX=  1.000000
 ScaDFX=  1.000000  1.000000  1.000000  1.000000 ScalE2=  1.000000  1.000000
 IRadAn=      5 IRanWt=     -1 IRanGd=            0 ICorTp=0 IEmpDi=  4
 NAtoms=   28 NActive=   28 NUniq=   28 SFac= 1.00D+00 NAtFMM=   60 NAOKFM=F Big=F
 Integral buffers will be    131072 words long.
 Raffenetti 1 integral format.
 Two-electron integral symmetry is turned on.
 Leave Link  301 at Fri Sep 17 13:32:39 2021, MaxMem=   524288000 cpu:               0.1 elap:               0.1
 (Enter /opt/gaussian/g16_legacy/l302.exe)
 NPDir=0 NMtPBC=     1 NCelOv=     1 NCel=       1 NClECP=     1 NCelD=      1
         NCelK=      1 NCelE2=     1 NClLst=     1 CellRange=     0.0.
 One-electron integrals computed using PRISM.
 One-electron integral symmetry used in STVInt
 NBasis=   240 RedAO= T EigKep=  2.10D-03  NBF=   240
 NBsUse=   240 1.00D-06 EigRej= -1.00D+00 NBFU=   240
 Leave Link  302 at Fri Sep 17 13:32:39 2021, MaxMem=   524288000 cpu:               0.3 elap:               0.3
 (Enter /opt/gaussian/g16_legacy/l303.exe)
 DipDrv:  MaxL=1.
 Leave Link  303 at Fri Sep 17 13:32:39 2021, MaxMem=   524288000 cpu:               0.1 elap:               0.1
 (Enter /opt/gaussian/g16_legacy/l401.exe)
 ExpMin= 1.61D-01 ExpMax= 3.05D+03 ExpMxC= 4.57D+02 IAcc=3 IRadAn=         5 AccDes= 0.00D+00
 Harris functional with IExCor=  205 and IRadAn=       5 diagonalized for initial guess.
 HarFok:  IExCor=  205 AccDes= 0.00D+00 IRadAn=         5 IDoV= 1 UseB2=F ITyADJ=14
 ICtDFT=  3500011 ScaDFX=  1.000000  1.000000  1.000000  1.000000
 FoFCou: FMM=F IPFlag=           0 FMFlag=      100000 FMFlg1=           0
         NFxFlg=           0 DoJE=T BraDBF=F KetDBF=T FulRan=T
         wScrn=  0.000000 ICntrl=       500 IOpCl=  0 I1Cent=   200000004 NGrid=           0
         NMat0=    1 NMatS0=      1 NMatT0=    0 NMatD0=    1 NMtDS0=    0 NMtDT0=    0
 Petite list used in FoFCou.
 Harris En= -390.109888079271    
 JPrj=0 DoOrth=F DoCkMO=F.
 Leave Link  401 at Fri Sep 17 13:32:50 2021, MaxMem=   524288000 cpu:              11.0 elap:              11.0
 (Enter /opt/gaussian/g16_legacy/l502.exe)
 Keep R1 ints in memory in canonical form, NReq=425198025.
 FoFCou: FMM=F IPFlag=           0 FMFlag=           0 FMFlg1=           0
         NFxFlg=           0 DoJE=F BraDBF=F KetDBF=F FulRan=T
         wScrn=  0.000000 ICntrl=       600 IOpCl=  0 I1Cent=           0 NGrid=           0
         NMat0=    1 NMatS0=  28920 NMatT0=    0 NMatD0=    1 NMtDS0=    0 NMtDT0=    0
 Symmetry not used in FoFCou.
 Two-electron integral symmetry not used.
 Closed shell SCF:
 Using DIIS extrapolation, IDIIS=  1040.
 NGot=   524288000 LenX=   105970886 LenY=   105912845
 Requested convergence on RMS density matrix=1.00D-08 within 128 cycles.
 Requested convergence on MAX density matrix=1.00D-06.
 Requested convergence on             energy=1.00D-06.
 No special actions if energy rises.

 Cycle   1  Pass 1  IDiag  1:
 E= -388.533191469956    
 DIIS: error= 5.21D-02 at cycle   1 NSaved=   1.
 NSaved= 1 IEnMin= 1 EnMin= -388.533191469956     IErMin= 1 ErrMin= 5.21D-02
 ErrMax= 5.21D-02  0.00D+00 EMaxC= 1.00D-01 BMatC= 8.07D-01 BMatP= 8.07D-01
 IDIUse=3 WtCom= 4.79D-01 WtEn= 5.21D-01
 Coeff-Com:  0.100D+01
 Coeff-En:   0.100D+01
 Coeff:      0.100D+01
 Gap=     0.508 Goal=   None    Shift=    0.000
 GapD=    0.508 DampG=2.000 DampE=0.500 DampFc=1.0000 IDamp=-1.
 RMSDP=4.00D-03 MaxDP=1.14D-01              OVMax= 1.33D-01

 Cycle   2  Pass 1  IDiag  1:
 E= -389.073876195160     Delta-E=       -0.540684725205 Rises=F Damp=F
 DIIS: error= 1.59D-02 at cycle   2 NSaved=   2.
 NSaved= 2 IEnMin= 2 EnMin= -389.073876195160     IErMin= 2 ErrMin= 1.59D-02
 ErrMax= 1.59D-02  0.00D+00 EMaxC= 1.00D-01 BMatC= 8.66D-02 BMatP= 8.07D-01
 IDIUse=3 WtCom= 8.41D-01 WtEn= 1.59D-01
 Coeff-Com:  0.183D+00 0.817D+00
 Coeff-En:   0.000D+00 0.100D+01
 Coeff:      0.154D+00 0.846D+00
 Gap=     0.549 Goal=   None    Shift=    0.000
 RMSDP=1.63D-03 MaxDP=3.04D-02 DE=-5.41D-01 OVMax= 4.61D-02

 Cycle   3  Pass 1  IDiag  1:
 E= -389.151435911975     Delta-E=       -0.077559716815 Rises=F Damp=F
 DIIS: error= 3.43D-03 at cycle   3 NSaved=   3.
 NSaved= 3 IEnMin= 3 EnMin= -389.151435911975     IErMin= 3 ErrMin= 3.43D-03
 ErrMax= 3.43D-03  0.00D+00 EMaxC= 1.00D-01 BMatC= 3.14D-03 BMatP= 8.66D-02
 IDIUse=3 WtCom= 9.66D-01 WtEn= 3.43D-02
 Coeff-Com: -0.245D-01 0.106D+00 0.919D+00
 Coeff-En:   0.000D+00 0.000D+00 0.100D+01
 Coeff:     -0.236D-01 0.102D+00 0.921D+00
 Gap=     0.499 Goal=   None    Shift=    0.000
 RMSDP=2.59D-04 MaxDP=7.15D-03 DE=-7.76D-02 OVMax= 1.01D-02

 Cycle   4  Pass 1  IDiag  1:
 E= -389.155061917636     Delta-E=       -0.003626005661 Rises=F Damp=F
 DIIS: error= 5.31D-04 at cycle   4 NSaved=   4.
 NSaved= 4 IEnMin= 4 EnMin= -389.155061917636     IErMin= 4 ErrMin= 5.31D-04
 ErrMax= 5.31D-04  0.00D+00 EMaxC= 1.00D-01 BMatC= 9.29D-05 BMatP= 3.14D-03
 IDIUse=3 WtCom= 9.95D-01 WtEn= 5.31D-03
 Coeff-Com: -0.424D-02-0.188D-02 0.951D-01 0.911D+00
 Coeff-En:   0.000D+00 0.000D+00 0.000D+00 0.100D+01
 Coeff:     -0.422D-02-0.187D-02 0.946D-01 0.912D+00
 Gap=     0.499 Goal=   None    Shift=    0.000
 RMSDP=7.39D-05 MaxDP=1.49D-03 DE=-3.63D-03 OVMax= 3.14D-03

 Cycle   5  Pass 1  IDiag  1:
 E= -389.155186286673     Delta-E=       -0.000124369036 Rises=F Damp=F
 DIIS: error= 1.63D-04 at cycle   5 NSaved=   5.
 NSaved= 5 IEnMin= 5 EnMin= -389.155186286673     IErMin= 5 ErrMin= 1.63D-04
 ErrMax= 1.63D-04  0.00D+00 EMaxC= 1.00D-01 BMatC= 1.60D-05 BMatP= 9.29D-05
 IDIUse=3 WtCom= 9.98D-01 WtEn= 1.63D-03
 Coeff-Com:  0.241D-02-0.152D-01-0.102D+00 0.176D+00 0.939D+00
 Coeff-En:   0.000D+00 0.000D+00 0.000D+00 0.000D+00 0.100D+01
 Coeff:      0.241D-02-0.152D-01-0.102D+00 0.175D+00 0.939D+00
 Gap=     0.500 Goal=   None    Shift=    0.000
 RMSDP=3.00D-05 MaxDP=6.56D-04 DE=-1.24D-04 OVMax= 9.23D-04

 Cycle   6  Pass 1  IDiag  1:
 E= -389.155207776397     Delta-E=       -0.000021489724 Rises=F Damp=F
 DIIS: error= 3.58D-05 at cycle   6 NSaved=   6.
 NSaved= 6 IEnMin= 6 EnMin= -389.155207776397     IErMin= 6 ErrMin= 3.58D-05
 ErrMax= 3.58D-05  0.00D+00 EMaxC= 1.00D-01 BMatC= 5.50D-07 BMatP= 1.60D-05
 IDIUse=1 WtCom= 1.00D+00 WtEn= 0.00D+00
 Coeff-Com:  0.720D-03-0.335D-02-0.261D-01-0.433D-02 0.177D+00 0.856D+00
 Coeff:      0.720D-03-0.335D-02-0.261D-01-0.433D-02 0.177D+00 0.856D+00
 Gap=     0.500 Goal=   None    Shift=    0.000
 RMSDP=5.30D-06 MaxDP=1.61D-04 DE=-2.15D-05 OVMax= 3.23D-04

 Cycle   7  Pass 1  IDiag  1:
 E= -389.155208617575     Delta-E=       -0.000000841179 Rises=F Damp=F
 DIIS: error= 1.03D-05 at cycle   7 NSaved=   7.
 NSaved= 7 IEnMin= 7 EnMin= -389.155208617575     IErMin= 7 ErrMin= 1.03D-05
 ErrMax= 1.03D-05  0.00D+00 EMaxC= 1.00D-01 BMatC= 5.44D-08 BMatP= 5.50D-07
 IDIUse=1 WtCom= 1.00D+00 WtEn= 0.00D+00
 Coeff-Com: -0.494D-04 0.464D-03 0.301D-02-0.105D-01-0.468D-01 0.145D+00
 Coeff-Com:  0.909D+00
 Coeff:     -0.494D-04 0.464D-03 0.301D-02-0.105D-01-0.468D-01 0.145D+00
 Coeff:      0.909D+00
 Gap=     0.500 Goal=   None    Shift=    0.000
 RMSDP=1.71D-06 MaxDP=4.10D-05 DE=-8.41D-07 OVMax= 8.42D-05

 Cycle   8  Pass 1  IDiag  1:
 E= -389.155208706530     Delta-E=       -0.000000088954 Rises=F Damp=F
 DIIS: error= 3.51D-06 at cycle   8 NSaved=   8.
 NSaved= 8 IEnMin= 8 EnMin= -389.155208706530     IErMin= 8 ErrMin= 3.51D-06
 ErrMax= 3.51D-06  0.00D+00 EMaxC= 1.00D-01 BMatC= 5.10D-09 BMatP= 5.44D-08
 IDIUse=1 WtCom= 1.00D+00 WtEn= 0.00D+00
 Coeff-Com: -0.581D-04 0.249D-03 0.208D-02 0.315D-02-0.171D-01-0.804D-01
 Coeff-Com: -0.123D+00 0.121D+01
 Coeff:     -0.581D-04 0.249D-03 0.208D-02 0.315D-02-0.171D-01-0.804D-01
 Coeff:     -0.123D+00 0.121D+01
 Gap=     0.500 Goal=   None    Shift=    0.000
 RMSDP=7.85D-07 MaxDP=2.41D-05 DE=-8.90D-08 OVMax= 5.81D-05

 Cycle   9  Pass 1  IDiag  1:
 E= -389.155208722413     Delta-E=       -0.000000015884 Rises=F Damp=F
 DIIS: error= 1.46D-06 at cycle   9 NSaved=   9.
 NSaved= 9 IEnMin= 9 EnMin= -389.155208722413     IErMin= 9 ErrMin= 1.46D-06
 ErrMax= 1.46D-06  0.00D+00 EMaxC= 1.00D-01 BMatC= 7.39D-10 BMatP= 5.10D-09
 IDIUse=1 WtCom= 1.00D+00 WtEn= 0.00D+00
 Coeff-Com:  0.928D-05-0.690D-04-0.480D-03 0.144D-02 0.385D-02 0.843D-04
 Coeff-Com: -0.865D-01-0.120D+00 0.120D+01
 Coeff:      0.928D-05-0.690D-04-0.480D-03 0.144D-02 0.385D-02 0.843D-04
 Coeff:     -0.865D-01-0.120D+00 0.120D+01
 Gap=     0.500 Goal=   None    Shift=    0.000
 RMSDP=2.99D-07 MaxDP=1.24D-05 DE=-1.59D-08 OVMax= 2.71D-05

 Cycle  10  Pass 1  IDiag  1:
 E= -389.155208724837     Delta-E=       -0.000000002424 Rises=F Damp=F
 DIIS: error= 3.97D-07 at cycle  10 NSaved=  10.
 NSaved=10 IEnMin=10 EnMin= -389.155208724837     IErMin=10 ErrMin= 3.97D-07
 ErrMax= 3.97D-07  0.00D+00 EMaxC= 1.00D-01 BMatC= 1.21D-10 BMatP= 7.39D-10
 IDIUse=1 WtCom= 1.00D+00 WtEn= 0.00D+00
 Coeff-Com:  0.952D-05-0.464D-04-0.369D-03-0.135D-03 0.233D-02 0.142D-01
 Coeff-Com:  0.594D-02-0.211D+00 0.144D+00 0.105D+01
 Coeff:      0.952D-05-0.464D-04-0.369D-03-0.135D-03 0.233D-02 0.142D-01
 Coeff:      0.594D-02-0.211D+00 0.144D+00 0.105D+01
 Gap=     0.500 Goal=   None    Shift=    0.000
 RMSDP=1.24D-07 MaxDP=3.07D-06 DE=-2.42D-09 OVMax= 9.88D-06

 Cycle  11  Pass 1  IDiag  1:
 E= -389.155208725153     Delta-E=       -0.000000000316 Rises=F Damp=F
 DIIS: error= 1.55D-07 at cycle  11 NSaved=  11.
 NSaved=11 IEnMin=11 EnMin= -389.155208725153     IErMin=11 ErrMin= 1.55D-07
 ErrMax= 1.55D-07  0.00D+00 EMaxC= 1.00D-01 BMatC= 9.54D-12 BMatP= 1.21D-10
 IDIUse=1 WtCom= 1.00D+00 WtEn= 0.00D+00
 Coeff-Com:  0.395D-06 0.834D-06 0.967D-06-0.149D-03-0.305D-03 0.278D-02
 Coeff-Com:  0.110D-01-0.153D-01-0.107D+00 0.164D+00 0.945D+00
 Coeff:      0.395D-06 0.834D-06 0.967D-06-0.149D-03-0.305D-03 0.278D-02
 Coeff:      0.110D-01-0.153D-01-0.107D+00 0.164D+00 0.945D+00
 Gap=     0.500 Goal=   None    Shift=    0.000
 RMSDP=2.76D-08 MaxDP=1.16D-06 DE=-3.16D-10 OVMax= 2.51D-06

 Cycle  12  Pass 1  IDiag  1:
 E= -389.155208725159     Delta-E=       -0.000000000006 Rises=F Damp=F
 DIIS: error= 3.63D-08 at cycle  12 NSaved=  12.
 NSaved=12 IEnMin=12 EnMin= -389.155208725159     IErMin=12 ErrMin= 3.63D-08
 ErrMax= 3.63D-08  0.00D+00 EMaxC= 1.00D-01 BMatC= 1.17D-12 BMatP= 9.54D-12
 IDIUse=1 WtCom= 1.00D+00 WtEn= 0.00D+00
 Coeff-Com: -0.102D-05 0.547D-05 0.429D-04 0.324D-05-0.342D-03-0.126D-02
 Coeff-Com:  0.366D-03 0.217D-01-0.321D-01-0.113D+00 0.981D-01 0.103D+01
 Coeff:     -0.102D-05 0.547D-05 0.429D-04 0.324D-05-0.342D-03-0.126D-02
 Coeff:      0.366D-03 0.217D-01-0.321D-01-0.113D+00 0.981D-01 0.103D+01
 Gap=     0.500 Goal=   None    Shift=    0.000
 RMSDP=1.18D-08 MaxDP=3.33D-07 DE=-6.14D-12 OVMax= 8.46D-07

 Cycle  13  Pass 1  IDiag  1:
 E= -389.155208725169     Delta-E=       -0.000000000010 Rises=F Damp=F
 DIIS: error= 1.06D-08 at cycle  13 NSaved=  13.
 NSaved=13 IEnMin=13 EnMin= -389.155208725169     IErMin=13 ErrMin= 1.06D-08
 ErrMax= 1.06D-08  0.00D+00 EMaxC= 1.00D-01 BMatC= 5.47D-14 BMatP= 1.17D-12
 IDIUse=1 WtCom= 1.00D+00 WtEn= 0.00D+00
 Coeff-Com: -0.122D-06 0.462D-06 0.389D-05 0.136D-04-0.170D-04-0.298D-03
 Coeff-Com: -0.849D-03 0.352D-02 0.515D-02-0.212D-01-0.612D-01 0.111D+00
 Coeff-Com:  0.964D+00
 Coeff:     -0.122D-06 0.462D-06 0.389D-05 0.136D-04-0.170D-04-0.298D-03
 Coeff:     -0.849D-03 0.352D-02 0.515D-02-0.212D-01-0.612D-01 0.111D+00
 Coeff:      0.964D+00
 Gap=     0.500 Goal=   None    Shift=    0.000
 RMSDP=2.13D-09 MaxDP=7.03D-08 DE=-1.02D-11 OVMax= 1.05D-07

 SCF Done:  E(RHF) =  -389.155208725     A.U. after   13 cycles
            NFock= 13  Conv=0.21D-08     -V/T= 2.0014
 KE= 3.886257549874D+02 PE=-1.937502819494D+03 EE= 6.432872797124D+02
 Leave Link  502 at Fri Sep 17 13:33:25 2021, MaxMem=   524288000 cpu:              34.4 elap:              34.7
 (Enter /opt/gaussian/g16_legacy/l801.exe)
 ExpMin= 1.61D-01 ExpMax= 3.05D+03 ExpMxC= 4.57D+02 IAcc=3 IRadAn=         5 AccDes= 0.00D+00
 HarFok:  IExCor=  205 AccDes= 0.00D+00 IRadAn=         5 IDoV=-2 UseB2=F ITyADJ=14
 ICtDFT= 12500011 ScaDFX=  1.000000  1.000000  1.000000  1.000000
 Largest valence mixing into a core orbital is  1.98D-04
 Largest core mixing into a valence orbital is  3.52D-05
 Range of M.O.s used for correlation:    11   240
 NBasis=   240 NAE=    39 NBE=    39 NFC=    10 NFV=     0
 NROrb=    230 NOA=    29 NOB=    29 NVA=   201 NVB=   201
 Leave Link  801 at Fri Sep 17 13:33:26 2021, MaxMem=   524288000 cpu:               1.5 elap:               1.5
 (Enter /opt/gaussian/g16_legacy/l906.exe)
 Frozen-core derivative calculation, NFC=  10 NFV=   0.
 FulOut=F Deriv=T AODrv=T NAtomX=    28
   MMem=          88  MDisk=          29 MDiskD=          29
  W3Min=     2246400 MinDsk=     2795480 NBas6D=         240
 NBas2D=       29244    NTT=       28920    LW2=     2040000
    MDV=   523626386 MDiskM=       30186 NBas2p=       24383
 Fully direct method using O(ONN) memory.
 IMap=   1   2   3   4   5   6   7   8   9  10  11  12  13  14  15  16  17  18  19  20
 IMap=  21  22  23  24  25  26  27  28  29  30  31  32  33  34  35  36  37  38  39
 JobTyp=1 Pass  1:  I=  11 to  39 NPSUse=  1 ParTrn=F ParDer=F DoDerP=T.
 Spin components of T(2) and E(2):
     alpha-alpha T2 =       0.5715137410D-01 E2=     -0.1638022903D+00
     alpha-beta  T2 =       0.3618156485D+00 E2=     -0.1089336956D+01
     beta-beta   T2 =       0.5715137410D-01 E2=     -0.1638022903D+00
 The integrals were generated   1 times.
 ANorm=    0.1214956130D+01
 E2 =    -0.1416941537D+01 EUMP2 =    -0.39057215026203D+03
 Leave Link  906 at Fri Sep 17 13:37:46 2021, MaxMem=   524288000 cpu:             259.8 elap:             259.8
 (Enter /opt/gaussian/g16_legacy/l1002.exe)
 Minotr:  Closed shell wavefunction.
          Computing MP2/KS-MP2 derivatives.
          Using Z-Vector for PSCF gradient.
          Skipping F1 and S1 gradient terms here.
          IDoAtm=1111111111111111111111111111
          Frozen-core window.
          Direct CPHF calculation.
          Differentiating once with respect to electric field.
                with respect to dipole field.
          Differentiating once with respect to nuclear coordinates.
          Requested convergence is 1.0D-10 RMS, and 1.0D-09 maximum.
          NewPWx=F KeepS1=T KeepF1=T KeepIn=T MapXYZ=F SortEE=F KeepMc=T.
 Keep R1 ints in memory in canonical form, NReq=425201067.
 FoFCou: FMM=F IPFlag=           0 FMFlag=           0 FMFlg1=           0
         NFxFlg=           0 DoJE=F BraDBF=F KetDBF=F FulRan=T
         wScrn=  0.000000 ICntrl=       600 IOpCl=  0 I1Cent=           0 NGrid=           0
         NMat0=    1 NMatS0=  28920 NMatT0=    0 NMatD0=    1 NMtDS0=    0 NMtDT0=    0
 Symmetry not used in FoFCou.
 Two-electron integral symmetry not used.
          MDV=     524288000 using IRadAn=       5.
          Solving linear equations separately, MaxMat=       0.
          There are     1 degrees of freedom in the 1st order CPHF.  IDoFFX=0 NUNeed=     1.
 LinEq1:  Iter=  0 NonCon=     1 RMS=2.55D-03 Max=3.76D-02 NDo=     1
 AX will form     1 AO Fock derivatives at one time.
 LinEq1:  Iter=  1 NonCon=     1 RMS=6.90D-04 Max=9.74D-03 NDo=     1
 LinEq1:  Iter=  2 NonCon=     1 RMS=1.61D-04 Max=4.14D-03 NDo=     1
 LinEq1:  Iter=  3 NonCon=     1 RMS=4.31D-05 Max=5.08D-04 NDo=     1
 LinEq1:  Iter=  4 NonCon=     1 RMS=1.99D-05 Max=8.55D-04 NDo=     1
 LinEq1:  Iter=  5 NonCon=     1 RMS=5.06D-06 Max=8.26D-05 NDo=     1
 LinEq1:  Iter=  6 NonCon=     1 RMS=1.63D-06 Max=2.68D-05 NDo=     1
 LinEq1:  Iter=  7 NonCon=     1 RMS=4.13D-07 Max=4.19D-06 NDo=     1
 LinEq1:  Iter=  8 NonCon=     1 RMS=1.01D-07 Max=1.86D-06 NDo=     1
 LinEq1:  Iter=  9 NonCon=     1 RMS=2.33D-08 Max=6.32D-07 NDo=     1
 LinEq1:  Iter= 10 NonCon=     1 RMS=6.42D-09 Max=1.62D-07 NDo=     1
 LinEq1:  Iter= 11 NonCon=     1 RMS=1.89D-09 Max=3.63D-08 NDo=     1
 LinEq1:  Iter= 12 NonCon=     1 RMS=4.10D-10 Max=6.74D-09 NDo=     1
 LinEq1:  Iter= 13 NonCon=     1 RMS=1.02D-10 Max=9.20D-10 NDo=     1
 LinEq1:  Iter= 14 NonCon=     1 RMS=3.73D-11 Max=1.25D-09 NDo=     1
 LinEq1:  Iter= 15 NonCon=     0 RMS=1.14D-11 Max=1.62D-10 NDo=     1
 Linear equations converged to 1.000D-10 1.000D-09 after    15 iterations.
 End of Minotr F.D. properties file   721 does not exist.
 End of Minotr F.D. properties file   722 does not exist.
 End of Minotr F.D. properties file   788 does not exist.
 Leave Link 1002 at Fri Sep 17 13:38:26 2021, MaxMem=   524288000 cpu:              39.7 elap:              39.7
 (Enter /opt/gaussian/g16_legacy/l601.exe)
 Copying SCF densities to generalized density rwf, IOpCl= 0 IROHF=0.

 **********************************************************************

            Population analysis using the SCF density.

 **********************************************************************

 Orbital symmetries:
       Occupied  (A) (A) (A) (A) (A) (A) (A) (A) (A) (A) (A) (A)
                 (A) (A) (A) (A) (A) (A) (A) (A) (A) (A) (A) (A)
                 (A) (A) (A) (A) (A) (A) (A) (A) (A) (A) (A) (A)
                 (A) (A) (A)
       Virtual   (A) (A) (A) (A) (A) (A) (A) (A) (A) (A) (A) (A)
                 (A) (A) (A) (A) (A) (A) (A) (A) (A) (A) (A) (A)
                 (A) (A) (A) (A) (A) (A) (A) (A) (A) (A) (A) (A)
                 (A) (A) (A) (A) (A) (A) (A) (A) (A) (A) (A) (A)
                 (A) (A) (A) (A) (A) (A) (A) (A) (A) (A) (A) (A)
                 (A) (A) (A) (A) (A) (A) (A) (A) (A) (A) (A) (A)
                 (A) (A) (A) (A) (A) (A) (A) (A) (A) (A) (A) (A)
                 (A) (A) (A) (A) (A) (A) (A) (A) (A) (A) (A) (A)
                 (A) (A) (A) (A) (A) (A) (A) (A) (A) (A) (A) (A)
                 (A) (A) (A) (A) (A) (A) (A) (A) (A) (A) (A) (A)
                 (A) (A) (A) (A) (A) (A) (A) (A) (A) (A) (A) (A)
                 (A) (A) (A) (A) (A) (A) (A) (A) (A) (A) (A) (A)
                 (A) (A) (A) (A) (A) (A) (A) (A) (A) (A) (A) (A)
                 (A) (A) (A) (A) (A) (A) (A) (A) (A) (A) (A) (A)
                 (A) (A) (A) (A) (A) (A) (A) (A) (A) (A) (A) (A)
                 (A) (A) (A) (A) (A) (A) (A) (A) (A) (A) (A) (A)
                 (A) (A) (A) (A) (A) (A) (A) (A) (A)
 The electronic state is 1-A.
 Alpha  occ. eigenvalues --  -11.23060 -11.22505 -11.22000 -11.21921 -11.21884
 Alpha  occ. eigenvalues --  -11.21650 -11.21554 -11.21485 -11.21457 -11.21437
 Alpha  occ. eigenvalues --   -1.10624  -1.08327  -1.01911  -0.98012  -0.93646
 Alpha  occ. eigenvalues --   -0.91776  -0.86755  -0.82685  -0.70599  -0.69343
 Alpha  occ. eigenvalues --   -0.64584  -0.61545  -0.60101  -0.59031  -0.58087
 Alpha  occ. eigenvalues --   -0.56803  -0.55367  -0.55149  -0.53548  -0.51981
 Alpha  occ. eigenvalues --   -0.51716  -0.51321  -0.50592  -0.49228  -0.48275
 Alpha  occ. eigenvalues --   -0.46013  -0.44272  -0.33357  -0.31526
 Alpha virt. eigenvalues --    0.18456   0.19493   0.22038   0.24453   0.25183
 Alpha virt. eigenvalues --    0.27141   0.28395   0.28931   0.30249   0.30503
 Alpha virt. eigenvalues --    0.31237   0.32117   0.33135   0.33435   0.34031
 Alpha virt. eigenvalues --    0.35677   0.35774   0.36970   0.38998   0.40648
 Alpha virt. eigenvalues --    0.41063   0.42593   0.43321   0.44192   0.45150
 Alpha virt. eigenvalues --    0.51684   0.54046   0.61171   0.62445   0.70139
 Alpha virt. eigenvalues --    0.71102   0.71887   0.74281   0.76418   0.76616
 Alpha virt. eigenvalues --    0.76877   0.78796   0.79454   0.81139   0.82036
 Alpha virt. eigenvalues --    0.83811   0.85654   0.88079   0.91265   0.92026
 Alpha virt. eigenvalues --    0.92897   0.95179   0.97058   0.98262   0.99206
 Alpha virt. eigenvalues --    0.99752   1.00201   1.02300   1.03926   1.06180
 Alpha virt. eigenvalues --    1.07862   1.08638   1.08808   1.11200   1.12390
 Alpha virt. eigenvalues --    1.12559   1.13432   1.14582   1.14925   1.15819
 Alpha virt. eigenvalues --    1.16163   1.16402   1.18222   1.18705   1.20090
 Alpha virt. eigenvalues --    1.20662   1.22064   1.22852   1.25017   1.27542
 Alpha virt. eigenvalues --    1.34169   1.40671   1.41849   1.43739   1.45171
 Alpha virt. eigenvalues --    1.47558   1.53477   1.56256   1.56980   1.58248
 Alpha virt. eigenvalues --    1.59849   1.62720   1.65798   1.69519   1.70790
 Alpha virt. eigenvalues --    1.75330   1.82525   1.92033   1.92195   1.95500
 Alpha virt. eigenvalues --    1.98633   2.01126   2.02847   2.04183   2.08704
 Alpha virt. eigenvalues --    2.09242   2.11122   2.11378   2.13104   2.14504
 Alpha virt. eigenvalues --    2.15427   2.17690   2.19726   2.23577   2.27382
 Alpha virt. eigenvalues --    2.28338   2.29991   2.32198   2.34973   2.35566
 Alpha virt. eigenvalues --    2.35644   2.35783   2.39324   2.39848   2.40350
 Alpha virt. eigenvalues --    2.41280   2.41824   2.43035   2.45157   2.45386
 Alpha virt. eigenvalues --    2.47033   2.48341   2.49334   2.50336   2.54525
 Alpha virt. eigenvalues --    2.56587   2.57721   2.61274   2.62183   2.64352
 Alpha virt. eigenvalues --    2.66342   2.67161   2.72031   2.72992   2.73747
 Alpha virt. eigenvalues --    2.75721   2.77699   2.81088   2.82804   2.85158
 Alpha virt. eigenvalues --    2.87732   2.89153   2.91921   2.93441   2.94436
 Alpha virt. eigenvalues --    2.97092   2.99036   3.01163   3.02598   3.05097
 Alpha virt. eigenvalues --    3.05823   3.06629   3.08504   3.13016   3.15937
 Alpha virt. eigenvalues --    3.17135   3.18160   3.19610   3.20677   3.21262
 Alpha virt. eigenvalues --    3.23189   3.24409   3.26460   3.27241   3.36666
 Alpha virt. eigenvalues --    3.39075   3.44608   3.45617   3.55549   3.57289
 Alpha virt. eigenvalues --    3.58692   3.61054   3.66886   3.73950   3.78196
 Alpha virt. eigenvalues --    3.78866   3.80507   3.81323   3.82328   3.82834
 Alpha virt. eigenvalues --    3.84210   3.85746   3.87658   3.89508   3.91180
 Alpha virt. eigenvalues --    3.95897   4.59095   4.62634   4.74428   4.82815
 Alpha virt. eigenvalues --    4.88836   4.92668   4.93351   5.07551   5.10287
 Alpha virt. eigenvalues --    5.16869
          Condensed to atoms (all electrons):
               1          2          3          4          5          6
     1  C    5.001809   0.412356   0.413512   0.340283  -0.058750   0.003676
     2  H    0.412356   0.571676  -0.030232  -0.040531   0.003238  -0.000103
     3  H    0.413512  -0.030232   0.588527  -0.045060  -0.004693   0.000081
     4  C    0.340283  -0.040531  -0.045060   4.955068   0.349335  -0.041409
     5  C   -0.058750   0.003238  -0.004693   0.349335   4.896467   0.406169
     6  H    0.003676  -0.000103   0.000081  -0.041409   0.406169   0.571063
     7  H   -0.003553  -0.000016   0.002571  -0.043067   0.397376  -0.027611
     8  H   -0.000531  -0.000030  -0.000275  -0.045807   0.400282  -0.028078
     9  C   -0.044045  -0.002231   0.001918   0.698841  -0.045930  -0.002738
    10  H    0.003079   0.000060  -0.000114  -0.036525  -0.006482   0.002221
    11  C   -0.007063  -0.002135   0.000138  -0.050690   0.003424   0.000137
    12  H    0.000227   0.000172   0.000028  -0.001412  -0.000116  -0.000004
    13  H   -0.001828  -0.001334   0.000004  -0.000418   0.000092   0.000004
    14  H    0.000232  -0.000034  -0.000010   0.000593  -0.000100  -0.000009
    15  C   -0.000101  -0.000042  -0.000000   0.000002  -0.000000   0.000000
    16  H   -0.000004   0.000001   0.000000   0.000000  -0.000000   0.000000
    17  H    0.000022  -0.000005  -0.000001  -0.000000   0.000000  -0.000000
    18  H   -0.000003  -0.000002   0.000002   0.000000  -0.000000   0.000000
    19  C   -0.003607   0.001046   0.000615   0.000006  -0.000002   0.000000
    20  C    0.000597   0.000160  -0.000016  -0.000017  -0.000000  -0.000000
    21  H   -0.000041   0.000014   0.000000   0.000001  -0.000000   0.000000
    22  H    0.000077  -0.000076  -0.000001  -0.000002   0.000000  -0.000000
    23  H   -0.000053  -0.000052  -0.000012  -0.000027  -0.000000   0.000000
    24  C   -0.063052  -0.000806  -0.000608   0.006130  -0.000158   0.000003
    25  H    0.000005   0.000213   0.001004  -0.000155   0.000010  -0.000000
    26  C    0.326222  -0.039857  -0.044607  -0.057364  -0.000187  -0.000097
    27  H   -0.040299  -0.002145   0.004203  -0.001438   0.000317  -0.000010
    28  H   -0.045138   0.004291  -0.002605  -0.001851  -0.000392  -0.000025
               7          8          9         10         11         12
     1  C   -0.003553  -0.000531  -0.044045   0.003079  -0.007063   0.000227
     2  H   -0.000016  -0.000030  -0.002231   0.000060  -0.002135   0.000172
     3  H    0.002571  -0.000275   0.001918  -0.000114   0.000138   0.000028
     4  C   -0.043067  -0.045807   0.698841  -0.036525  -0.050690  -0.001412
     5  C    0.397376   0.400282  -0.045930  -0.006482   0.003424  -0.000116
     6  H   -0.027611  -0.028078  -0.002738   0.002221   0.000137  -0.000004
     7  H    0.593624  -0.035005  -0.000426   0.000248  -0.000114   0.000021
     8  H   -0.035005   0.594743  -0.001033   0.000123  -0.000100  -0.000005
     9  C   -0.000426  -0.001033   4.939936   0.404874   0.337726  -0.044352
    10  H    0.000248   0.000123   0.404874   0.559329  -0.043631  -0.000221
    11  C   -0.000114  -0.000100   0.337726  -0.043631   4.906229   0.400021
    12  H    0.000021  -0.000005  -0.044352  -0.000221   0.400021   0.584272
    13  H   -0.000001   0.000000  -0.041932   0.003314   0.408020  -0.026864
    14  H   -0.000004   0.000015  -0.042838  -0.002645   0.402999  -0.033278
    15  C   -0.000000  -0.000000  -0.000000   0.000000  -0.000000   0.000000
    16  H    0.000000   0.000000   0.000000   0.000000  -0.000000   0.000000
    17  H   -0.000000   0.000000  -0.000000  -0.000000   0.000000  -0.000000
    18  H   -0.000000  -0.000000  -0.000000   0.000000   0.000000  -0.000000
    19  C    0.000000   0.000000   0.000001   0.000000   0.000007  -0.000000
    20  C   -0.000000  -0.000000   0.000010  -0.000000  -0.000097   0.000002
    21  H    0.000000   0.000000   0.000000   0.000000   0.000002   0.000000
    22  H   -0.000000   0.000000   0.000000  -0.000000  -0.000003  -0.000000
    23  H   -0.000000   0.000000  -0.000032   0.000000   0.000040  -0.000008
    24  C    0.000001  -0.000086   0.000070   0.000002  -0.000032   0.000002
    25  H   -0.000002   0.000012  -0.000002  -0.000000   0.000000   0.000000
    26  C    0.000027   0.000810  -0.004366  -0.000116   0.000690  -0.000050
    27  H    0.000012  -0.000009   0.001215  -0.000044   0.000071   0.000023
    28  H    0.000093  -0.000187   0.000515   0.000004  -0.000030  -0.000000
              13         14         15         16         17         18
     1  C   -0.001828   0.000232  -0.000101  -0.000004   0.000022  -0.000003
     2  H   -0.001334  -0.000034  -0.000042   0.000001  -0.000005  -0.000002
     3  H    0.000004  -0.000010  -0.000000   0.000000  -0.000001   0.000002
     4  C   -0.000418   0.000593   0.000002   0.000000  -0.000000   0.000000
     5  C    0.000092  -0.000100  -0.000000  -0.000000   0.000000  -0.000000
     6  H    0.000004  -0.000009   0.000000   0.000000  -0.000000   0.000000
     7  H   -0.000001  -0.000004  -0.000000   0.000000  -0.000000  -0.000000
     8  H    0.000000   0.000015  -0.000000   0.000000   0.000000  -0.000000
     9  C   -0.041932  -0.042838  -0.000000   0.000000  -0.000000  -0.000000
    10  H    0.003314  -0.002645   0.000000   0.000000  -0.000000   0.000000
    11  C    0.408020   0.402999  -0.000000  -0.000000   0.000000   0.000000
    12  H   -0.026864  -0.033278   0.000000   0.000000  -0.000000  -0.000000
    13  H    0.573882  -0.030008   0.000000  -0.000000  -0.000000  -0.000000
    14  H   -0.030008   0.586797  -0.000000  -0.000000   0.000000  -0.000000
    15  C    0.000000  -0.000000   4.903251   0.399264   0.396983   0.405433
    16  H   -0.000000  -0.000000   0.399264   0.593052  -0.034896  -0.027564
    17  H   -0.000000   0.000000   0.396983  -0.034896   0.594330  -0.027371
    18  H   -0.000000  -0.000000   0.405433  -0.027564  -0.027371   0.568024
    19  C   -0.000013   0.000000   0.352283  -0.045757  -0.044307  -0.040401
    20  C    0.000010  -0.000004  -0.065383  -0.001104  -0.002142   0.003696
    21  H   -0.000006  -0.000000  -0.001684   0.002552  -0.000371  -0.000079
    22  H    0.000034   0.000000  -0.003430  -0.000507   0.002847   0.000010
    23  H    0.000571   0.000042   0.003678  -0.000023  -0.000072  -0.000108
    24  C    0.000003  -0.000004  -0.044866  -0.001136  -0.000546  -0.002387
    25  H   -0.000001   0.000000  -0.006749   0.000150   0.000235   0.002177
    26  C   -0.000212   0.000091   0.003153  -0.000124  -0.000086   0.000146
    27  H   -0.000251  -0.000079   0.000070   0.000004  -0.000004   0.000006
    28  H   -0.000008   0.000000  -0.000102   0.000012  -0.000002  -0.000011
              19         20         21         22         23         24
     1  C   -0.003607   0.000597  -0.000041   0.000077  -0.000053  -0.063052
     2  H    0.001046   0.000160   0.000014  -0.000076  -0.000052  -0.000806
     3  H    0.000615  -0.000016   0.000000  -0.000001  -0.000012  -0.000608
     4  C    0.000006  -0.000017   0.000001  -0.000002  -0.000027   0.006130
     5  C   -0.000002  -0.000000  -0.000000   0.000000  -0.000000  -0.000158
     6  H    0.000000  -0.000000   0.000000  -0.000000   0.000000   0.000003
     7  H    0.000000  -0.000000   0.000000  -0.000000  -0.000000   0.000001
     8  H    0.000000  -0.000000   0.000000   0.000000   0.000000  -0.000086
     9  C    0.000001   0.000010   0.000000   0.000000  -0.000032   0.000070
    10  H    0.000000  -0.000000   0.000000  -0.000000   0.000000   0.000002
    11  C    0.000007  -0.000097   0.000002  -0.000003   0.000040  -0.000032
    12  H   -0.000000   0.000002   0.000000  -0.000000  -0.000008   0.000002
    13  H   -0.000013   0.000010  -0.000006   0.000034   0.000571   0.000003
    14  H    0.000000  -0.000004  -0.000000   0.000000   0.000042  -0.000004
    15  C    0.352283  -0.065383  -0.001684  -0.003430   0.003678  -0.044866
    16  H   -0.045757  -0.001104   0.002552  -0.000507  -0.000023  -0.001136
    17  H   -0.044307  -0.002142  -0.000371   0.002847  -0.000072  -0.000546
    18  H   -0.040401   0.003696  -0.000079   0.000010  -0.000108  -0.002387
    19  C    4.918209   0.348391  -0.043817  -0.043930  -0.037062   0.698183
    20  C    0.348391   4.909241   0.398273   0.402440   0.406140  -0.043318
    21  H   -0.043817   0.398273   0.582506  -0.033090  -0.026276  -0.000843
    22  H   -0.043930   0.402440  -0.033090   0.586187  -0.030012   0.000449
    23  H   -0.037062   0.406140  -0.026276  -0.030012   0.568214  -0.002870
    24  C    0.698183  -0.043318  -0.000843   0.000449  -0.002870   4.961472
    25  H   -0.036141   0.003365  -0.000126  -0.000110   0.000059   0.402024
    26  C   -0.048263  -0.007535   0.000188   0.000286  -0.001946   0.339924
    27  H    0.000824  -0.002066   0.000056  -0.000043  -0.001171  -0.043813
    28  H    0.000914   0.000169   0.000032  -0.000012   0.000031  -0.043343
              25         26         27         28
     1  C    0.000005   0.326222  -0.040299  -0.045138
     2  H    0.000213  -0.039857  -0.002145   0.004291
     3  H    0.001004  -0.044607   0.004203  -0.002605
     4  C   -0.000155  -0.057364  -0.001438  -0.001851
     5  C    0.000010  -0.000187   0.000317  -0.000392
     6  H   -0.000000  -0.000097  -0.000010  -0.000025
     7  H   -0.000002   0.000027   0.000012   0.000093
     8  H    0.000012   0.000810  -0.000009  -0.000187
     9  C   -0.000002  -0.004366   0.001215   0.000515
    10  H   -0.000000  -0.000116  -0.000044   0.000004
    11  C    0.000000   0.000690   0.000071  -0.000030
    12  H    0.000000  -0.000050   0.000023  -0.000000
    13  H   -0.000001  -0.000212  -0.000251  -0.000008
    14  H    0.000000   0.000091  -0.000079   0.000000
    15  C   -0.006749   0.003153   0.000070  -0.000102
    16  H    0.000150  -0.000124   0.000004   0.000012
    17  H    0.000235  -0.000086  -0.000004  -0.000002
    18  H    0.002177   0.000146   0.000006  -0.000011
    19  C   -0.036141  -0.048263   0.000824   0.000914
    20  C    0.003365  -0.007535  -0.002066   0.000169
    21  H   -0.000126   0.000188   0.000056   0.000032
    22  H   -0.000110   0.000286  -0.000043  -0.000012
    23  H    0.000059  -0.001946  -0.001171   0.000031
    24  C    0.402024   0.339924  -0.043813  -0.043343
    25  H    0.558502  -0.041274   0.003230  -0.003485
    26  C   -0.041274   4.982344   0.414869   0.413771
    27  H    0.003230   0.414869   0.571259  -0.029601
    28  H   -0.003485   0.413771  -0.029601   0.588501
 Mulliken charges:
               1
     1  C   -0.234027
     2  H    0.126403
     3  H    0.115634
     4  C    0.015515
     5  C   -0.339897
     6  H    0.116729
     7  H    0.115826
     8  H    0.115162
     9  C   -0.155179
    10  H    0.116522
    11  C   -0.355609
    12  H    0.121543
    13  H    0.116942
    14  H    0.118242
    15  C   -0.341759
    16  H    0.116080
    17  H    0.115388
    18  H    0.118430
    19  C    0.022821
    20  C   -0.350810
    21  H    0.122710
    22  H    0.118886
    23  H    0.120946
    24  C   -0.160394
    25  H    0.117060
    26  C   -0.236439
    27  H    0.124813
    28  H    0.118461
 Sum of Mulliken charges =  -0.00000
 Mulliken charges with hydrogens summed into heavy atoms:
               1
     1  C    0.008010
     4  C    0.015515
     5  C    0.007819
     9  C   -0.038656
    11  C    0.001119
    15  C    0.008139
    19  C    0.022821
    20  C    0.011733
    24  C   -0.043334
    26  C    0.006834
 Electronic spatial extent (au):  <R**2>=           2423.6661
 Charge=             -0.0000 electrons
 Dipole moment (field-independent basis, Debye):
    X=              0.2950    Y=              0.1261    Z=             -0.0059  Tot=              0.3209
 Quadrupole moment (field-independent basis, Debye-Ang):
   XX=            -64.5119   YY=            -63.6038   ZZ=            -67.0541
   XY=              0.6103   XZ=              0.8622   YZ=             -0.4852
 Traceless Quadrupole moment (field-independent basis, Debye-Ang):
   XX=              0.5447   YY=              1.4529   ZZ=             -1.9975
   XY=              0.6103   XZ=              0.8622   YZ=             -0.4852
 Octapole moment (field-independent basis, Debye-Ang**2):
  XXX=              1.3695  YYY=             -2.7209  ZZZ=              0.1849  XYY=             -0.5692
  XXY=              4.5344  XXZ=             -2.6552  XZZ=              1.5768  YZZ=              1.2278
  YYZ=              1.3700  XYZ=             -0.7516
 Hexadecapole moment (field-independent basis, Debye-Ang**3):
 XXXX=          -2492.3114 YYYY=           -696.1232 ZZZZ=           -174.8235 XXXY=             -2.3542
 XXXZ=             11.9199 YYYX=             -9.3583 YYYZ=             -3.0513 ZZZX=             -0.8389
 ZZZY=             -0.0648 XXYY=           -530.4759 XXZZ=           -456.3172 YYZZ=           -139.1721
 XXYZ=             -4.2449 YYXZ=              3.1984 ZZXY=              4.7005
 N-N= 5.164345760694D+02 E-N=-1.937502819607D+03  KE= 3.886257549874D+02
 No NMR shielding tensors so no spin-rotation constants.
 Leave Link  601 at Fri Sep 17 13:38:26 2021, MaxMem=   524288000 cpu:               0.3 elap:               0.3
 (Enter /opt/gaussian/g16_legacy/l701.exe)
 ... and contract with generalized density number  2.
 Compute integral first derivatives.
 Leave Link  701 at Fri Sep 17 13:38:27 2021, MaxMem=   524288000 cpu:               0.3 elap:               0.3
 (Enter /opt/gaussian/g16_legacy/l702.exe)
 L702 exits ... SP integral derivatives will be done elsewhere.
 Leave Link  702 at Fri Sep 17 13:38:27 2021, MaxMem=   524288000 cpu:               0.1 elap:               0.1
 (Enter /opt/gaussian/g16_legacy/l703.exe)
 Integral derivatives from FoFJK, PRISM(SPDF).
 Compute integral first derivatives, UseDBF=F ICtDFT=           0.
 Calling FoFJK, ICntrl=  10002127 FMM=F ISym2X=0 I1Cent= 0 IOpClX= 0 NMat=1 NMatS=1 NMatT=0.
 FoFJK:  IHMeth= 1 ICntrl=10002127 DoSepK=F KAlg= 0 I1Cent=           0 FoldK=F
 IRaf=         0 NMat=       1 IRICut=       1 DoRegI=T DoRafI=F ISym2E= 0 IDoP0=0 IntGTp=1.
 FoFCou: FMM=F IPFlag=           0 FMFlag=      100000 FMFlg1=         800
         NFxFlg=           0 DoJE=F BraDBF=F KetDBF=F FulRan=T
         wScrn=  0.000000 ICntrl=  10002127 IOpCl=  0 I1Cent=           0 NGrid=           0
         NMat0=    1 NMatS0=      1 NMatT0=    0 NMatD0=    1 NMtDS0=    0 NMtDT0=    0
 Symmetry not used in FoFCou.
 Leave Link  703 at Fri Sep 17 13:39:00 2021, MaxMem=   524288000 cpu:              33.3 elap:              33.3
 (Enter /opt/gaussian/g16_legacy/l716.exe)
 Dipole        = 9.11679271D-02 6.68553843D-02-4.75768799D-03
 ***** Axes restored to original set *****
 -------------------------------------------------------------------
 Center     Atomic                   Forces (Hartrees/Bohr)
 Number     Number              X              Y              Z
 -------------------------------------------------------------------
      1        6           0.002906129   -0.004501741    0.007804950
      2        1           0.001831638   -0.000748708   -0.004219294
      3        1           0.001140888   -0.002183803   -0.002941690
      4        6           0.002161821    0.002484491    0.005583096
      5        6           0.002704163   -0.001621074    0.000697024
      6        1          -0.003956574   -0.000006641   -0.001199873
      7        1           0.000425322   -0.000414232   -0.003338192
      8        1          -0.000210660    0.002343781    0.002417239
      9        6           0.000180365    0.001139857   -0.003581130
     10        1          -0.000947476    0.002989350   -0.001686573
     11        6          -0.002324766   -0.001284030   -0.000421564
     12        1          -0.001143792   -0.002423747   -0.002157186
     13        1           0.002774579    0.000946633    0.001622121
     14        1          -0.001636832    0.001117826    0.002846570
     15        6           0.000623277    0.003287978    0.000467852
     16        1          -0.001791352   -0.000047335    0.002841402
     17        1          -0.000176036   -0.000747906   -0.003475410
     18        1           0.001102597   -0.004103827    0.000702907
     19        6           0.000373074    0.004633031    0.002505015
     20        6           0.003562492   -0.002451615    0.001670919
     21        1          -0.001729015   -0.000472587    0.002587837
     22        1           0.000587870    0.000494510   -0.003580934
     23        1          -0.001024577    0.002649704   -0.002046724
     24        6           0.003756996   -0.001024862   -0.003544790
     25        1          -0.002815882   -0.001892587    0.000063396
     26        6          -0.004938542    0.000898711   -0.006179914
     27        1          -0.001136728    0.001985401    0.003338645
     28        1          -0.000298979   -0.001046578    0.003224302
 -------------------------------------------------------------------
 Cartesian Forces:  Max     0.007804950 RMS     0.002575337
 Leave Link  716 at Fri Sep 17 13:39:00 2021, MaxMem=   524288000 cpu:               0.1 elap:               0.1
 (Enter /opt/gaussian/g16_legacy/l103.exe)

 GradGradGradGradGradGradGradGradGradGradGradGradGradGradGradGradGradGrad
 Berny optimization.
 FormGI is forming the generalized inverse of G from B-inverse, IUseBI=4.
 Internal  Forces:  Max     0.004888145 RMS     0.001917188
 Search for a local minimum.
 Step number   1 out of a maximum of  138
 All quantities printed in internal units (Hartrees-Bohrs-Radians)
 RMS Force = .19172D-02 SwitMx=.10000D-02 MixMth= 1
 Mixed Optimization -- RFO/linear search
 Second derivative matrix not updated -- first step.
 ITU=  0
     Eigenvalues ---    0.00343   0.00570   0.00670   0.00680   0.00692
     Eigenvalues ---    0.00714   0.00817   0.01219   0.01287   0.01569
     Eigenvalues ---    0.01641   0.02780   0.02785   0.04018   0.04138
     Eigenvalues ---    0.05349   0.05399   0.06978   0.07034   0.07090
     Eigenvalues ---    0.07093   0.07269   0.07301   0.07347   0.07504
     Eigenvalues ---    0.09278   0.09362   0.12767   0.12843   0.15999
     Eigenvalues ---    0.15999   0.16000   0.16000   0.16000   0.16000
     Eigenvalues ---    0.16000   0.16000   0.16000   0.16000   0.16000
     Eigenvalues ---    0.16000   0.16000   0.16000   0.21858   0.21866
     Eigenvalues ---    0.22000   0.22000   0.24994   0.24997   0.24998
     Eigenvalues ---    0.24999   0.29244   0.30873   0.31629   0.31708
     Eigenvalues ---    0.31798   0.31967   0.32787   0.33858   0.33970
     Eigenvalues ---    0.34069   0.34197   0.34216   0.34236   0.34241
     Eigenvalues ---    0.34242   0.34248   0.34249   0.34258   0.34265
     Eigenvalues ---    0.34299   0.34332   0.34539   0.34557   0.34807
     Eigenvalues ---    0.34851   0.55498   0.55583
 RFO step:  Lambda=-2.95966385D-03 EMin= 3.43307439D-03
 Linear search not attempted -- first point.
 Iteration  1 RMS(Cart)=  0.03967822 RMS(Int)=  0.00072315
 Iteration  2 RMS(Cart)=  0.00093504 RMS(Int)=  0.00016637
 Iteration  3 RMS(Cart)=  0.00000043 RMS(Int)=  0.00016637
 ITry= 1 IFail=0 DXMaxC= 1.68D-01 DCOld= 1.00D+10 DXMaxT= 3.00D-01 DXLimC= 3.00D+00 Rises=F
 Variable       Old X    -DE/DX   Delta X   Delta X   Delta X     New X
                                 (Linear)    (Quad)   (Total)
    R1        2.07215  -0.00328   0.00000  -0.00954  -0.00954   2.06260
    R2        2.07570  -0.00282   0.00000  -0.00827  -0.00827   2.06743
    R3        2.86255  -0.00352   0.00000  -0.01128  -0.01128   2.85127
    R4        2.89497   0.00175   0.00000   0.00593   0.00593   2.90090
    R5        2.84828  -0.00047   0.00000  -0.00148  -0.00148   2.84680
    R6        2.54692  -0.00396   0.00000  -0.00709  -0.00709   2.53982
    R7        2.06967  -0.00374   0.00000  -0.01085  -0.01085   2.05882
    R8        2.06912  -0.00217   0.00000  -0.00627  -0.00627   2.06285
    R9        2.06828  -0.00178   0.00000  -0.00514  -0.00514   2.06314
   R10        2.05917  -0.00220   0.00000  -0.00625  -0.00625   2.05291
   R11        2.82727   0.00305   0.00000   0.00923   0.00923   2.83650
   R12        2.06774  -0.00159   0.00000  -0.00460  -0.00460   2.06314
   R13        2.06401  -0.00289   0.00000  -0.00829  -0.00829   2.05572
   R14        2.06897  -0.00261   0.00000  -0.00757  -0.00757   2.06140
   R15        2.06914  -0.00200   0.00000  -0.00578  -0.00578   2.06335
   R16        2.06926  -0.00204   0.00000  -0.00589  -0.00589   2.06336
   R17        2.06933  -0.00391   0.00000  -0.01133  -0.01133   2.05800
   R18        2.84682  -0.00076   0.00000  -0.00238  -0.00238   2.84443
   R19        2.84204  -0.00050   0.00000  -0.00156  -0.00156   2.84049
   R20        2.54618  -0.00321   0.00000  -0.00575  -0.00575   2.54043
   R21        2.06886  -0.00187   0.00000  -0.00541  -0.00541   2.06345
   R22        2.07000  -0.00263   0.00000  -0.00763  -0.00763   2.06237
   R23        2.06431  -0.00289   0.00000  -0.00829  -0.00829   2.05602
   R24        2.05990  -0.00192   0.00000  -0.00548  -0.00548   2.05442
   R25        2.84515  -0.00153   0.00000  -0.00478  -0.00478   2.84037
   R26        2.06924  -0.00280   0.00000  -0.00810  -0.00810   2.06113
   R27        2.07380  -0.00239   0.00000  -0.00697  -0.00697   2.06683
    A1        1.82989   0.00207   0.00000   0.02247   0.02231   1.85220
    A2        1.93016   0.00043   0.00000   0.00925   0.00929   1.93945
    A3        1.91838  -0.00277   0.00000  -0.02021  -0.02025   1.89813
    A4        1.90264  -0.00069   0.00000  -0.00273  -0.00273   1.89991
    A5        1.92000  -0.00194   0.00000  -0.01719  -0.01722   1.90278
    A6        1.95841   0.00283   0.00000   0.00909   0.00913   1.96754
    A7        2.00828   0.00238   0.00000   0.00970   0.00913   2.01741
    A8        2.17074  -0.00489   0.00000  -0.01896  -0.01949   2.15125
    A9        2.10398   0.00253   0.00000   0.01037   0.00979   2.11377
   A10        1.95924  -0.00262   0.00000  -0.01308  -0.01304   1.94620
   A11        1.92479   0.00166   0.00000   0.00902   0.00903   1.93382
   A12        1.92806   0.00228   0.00000   0.01215   0.01218   1.94024
   A13        1.87754   0.00110   0.00000   0.01021   0.01024   1.88778
   A14        1.87703   0.00055   0.00000   0.00562   0.00566   1.88269
   A15        1.89504  -0.00308   0.00000  -0.02476  -0.02476   1.87028
   A16        2.06975  -0.00194   0.00000  -0.01341  -0.01342   2.05632
   A17        2.22504  -0.00187   0.00000  -0.00833  -0.00835   2.21670
   A18        1.98826   0.00381   0.00000   0.02190   0.02189   2.01015
   A19        1.91725   0.00394   0.00000   0.02327   0.02324   1.94049
   A20        1.98129  -0.00300   0.00000  -0.01848  -0.01839   1.96290
   A21        1.91002   0.00238   0.00000   0.01559   0.01554   1.92556
   A22        1.89276  -0.00094   0.00000  -0.00752  -0.00742   1.88534
   A23        1.88712  -0.00309   0.00000  -0.01882  -0.01900   1.86812
   A24        1.87277   0.00052   0.00000   0.00488   0.00495   1.87772
   A25        1.89487  -0.00313   0.00000  -0.02544  -0.02543   1.86944
   A26        1.87885   0.00092   0.00000   0.00791   0.00794   1.88679
   A27        1.92356   0.00173   0.00000   0.00867   0.00869   1.93225
   A28        1.87915   0.00092   0.00000   0.00938   0.00942   1.88857
   A29        1.92486   0.00221   0.00000   0.01240   0.01243   1.93729
   A30        1.96054  -0.00276   0.00000  -0.01377  -0.01373   1.94681
   A31        1.99465   0.00147   0.00000   0.00583   0.00581   2.00047
   A32        2.10580   0.00183   0.00000   0.00726   0.00724   2.11304
   A33        2.18269  -0.00329   0.00000  -0.01299  -0.01301   2.16968
   A34        1.92166   0.00229   0.00000   0.01162   0.01164   1.93330
   A35        1.92076   0.00001   0.00000  -0.00084  -0.00083   1.91993
   A36        1.97966  -0.00221   0.00000  -0.01014  -0.01012   1.96953
   A37        1.89078  -0.00241   0.00000  -0.02169  -0.02167   1.86911
   A38        1.88439   0.00024   0.00000   0.00329   0.00332   1.88771
   A39        1.86370   0.00200   0.00000   0.01698   0.01699   1.88069
   A40        2.06721  -0.00168   0.00000  -0.01187  -0.01227   2.05494
   A41        2.22712  -0.00225   0.00000  -0.00992  -0.01033   2.21679
   A42        1.98873   0.00394   0.00000   0.02257   0.02215   2.01088
   A43        1.94457   0.00329   0.00000   0.01359   0.01362   1.95819
   A44        1.92600  -0.00263   0.00000  -0.02487  -0.02494   1.90106
   A45        1.92088  -0.00238   0.00000  -0.01473  -0.01493   1.90595
   A46        1.94656  -0.00052   0.00000  -0.00241  -0.00236   1.94420
   A47        1.88064   0.00061   0.00000   0.01702   0.01706   1.89770
   A48        1.84186   0.00155   0.00000   0.01192   0.01166   1.85352
    D1       -2.64259  -0.00174   0.00000  -0.05222  -0.05201  -2.69460
    D2        0.47846  -0.00076   0.00000   0.01012   0.00989   0.48835
    D3       -0.63952   0.00058   0.00000  -0.02164  -0.02140  -0.66092
    D4        2.48153   0.00156   0.00000   0.04070   0.04050   2.52203
[...]
                 (A) (A) (A) (A) (A) (A) (A) (A) (A) (A) (A) (A)
                 (A) (A) (A) (A) (A) (A) (A) (A) (A) (A) (A) (A)
                 (A) (A) (A) (A) (A) (A) (A) (A) (A) (A) (A) (A)
                 (A) (A) (A) (A) (A) (A) (A) (A) (A) (A) (A) (A)
                 (A) (A) (A) (A) (A) (A) (A) (A) (A) (A) (A) (A)
                 (A) (A) (A) (A) (A) (A) (A) (A) (A) (A) (A) (A)
                 (A) (A) (A) (A) (A) (A) (A) (A) (A) (A) (A) (A)
                 (A) (A) (A) (A) (A) (A) (A) (A) (A) (A) (A) (A)
                 (A) (A) (A) (A) (A) (A) (A) (A) (A) (A) (A) (A)
                 (A) (A) (A) (A) (A) (A) (A) (A) (A) (A) (A) (A)
                 (A) (A) (A) (A) (A) (A) (A) (A) (A) (A) (A) (A)
                 (A) (A) (A) (A) (A) (A) (A) (A) (A) (A) (A) (A)
                 (A) (A) (A) (A) (A) (A) (A) (A) (A)
 The electronic state is 1-A.
 Alpha  occ. eigenvalues --  -11.23020 -11.22460 -11.21868 -11.21730 -11.21712
 Alpha  occ. eigenvalues --  -11.21539 -11.21506 -11.21436 -11.21417 -11.21348
 Alpha  occ. eigenvalues --   -1.10821  -1.08492  -1.01823  -0.98143  -0.93838
 Alpha  occ. eigenvalues --   -0.91939  -0.86963  -0.82855  -0.70494  -0.69519
 Alpha  occ. eigenvalues --   -0.64988  -0.61512  -0.60591  -0.58878  -0.58366
 Alpha  occ. eigenvalues --   -0.56774  -0.55298  -0.54966  -0.53295  -0.52261
 Alpha  occ. eigenvalues --   -0.51859  -0.51173  -0.50832  -0.49581  -0.48519
 Alpha  occ. eigenvalues --   -0.46073  -0.44624  -0.33371  -0.31514
 Alpha virt. eigenvalues --    0.18142   0.19779   0.22152   0.24486   0.25192
 Alpha virt. eigenvalues --    0.27439   0.28535   0.28922   0.30318   0.30811
 Alpha virt. eigenvalues --    0.31477   0.32261   0.33202   0.33794   0.34383
 Alpha virt. eigenvalues --    0.35458   0.36114   0.36962   0.39185   0.40602
 Alpha virt. eigenvalues --    0.41328   0.42631   0.43685   0.44253   0.45395
 Alpha virt. eigenvalues --    0.51702   0.54378   0.61070   0.62576   0.70520
 Alpha virt. eigenvalues --    0.71073   0.72196   0.73768   0.76075   0.76177
 Alpha virt. eigenvalues --    0.76620   0.79010   0.79474   0.81070   0.82306
 Alpha virt. eigenvalues --    0.83713   0.85579   0.89117   0.91091   0.91343
 Alpha virt. eigenvalues --    0.92820   0.94745   0.97065   0.98284   0.98818
 Alpha virt. eigenvalues --    0.99710   1.00468   1.01911   1.03844   1.06577
 Alpha virt. eigenvalues --    1.08019   1.08221   1.09393   1.11664   1.12687
 Alpha virt. eigenvalues --    1.13026   1.13870   1.14856   1.15402   1.16045
 Alpha virt. eigenvalues --    1.16257   1.16619   1.18722   1.19116   1.20671
 Alpha virt. eigenvalues --    1.20953   1.23032   1.23885   1.25765   1.28153
 Alpha virt. eigenvalues --    1.34331   1.41723   1.42153   1.44890   1.46395
 Alpha virt. eigenvalues --    1.48456   1.54136   1.55360   1.57256   1.58165
 Alpha virt. eigenvalues --    1.61459   1.63397   1.66485   1.69046   1.69645
 Alpha virt. eigenvalues --    1.73917   1.82243   1.91111   1.93363   1.96231
 Alpha virt. eigenvalues --    1.98688   2.01467   2.02277   2.03942   2.08565
 Alpha virt. eigenvalues --    2.09706   2.10748   2.11744   2.13037   2.14903
 Alpha virt. eigenvalues --    2.15780   2.16940   2.19854   2.23666   2.28347
 Alpha virt. eigenvalues --    2.29590   2.30325   2.33235   2.35347   2.35688
 Alpha virt. eigenvalues --    2.35978   2.36098   2.38923   2.40264   2.41259
 Alpha virt. eigenvalues --    2.42195   2.43169   2.44154   2.45371   2.46084
 Alpha virt. eigenvalues --    2.47201   2.49167   2.49622   2.51174   2.54099
 Alpha virt. eigenvalues --    2.57315   2.58365   2.61888   2.63241   2.64107
 Alpha virt. eigenvalues --    2.67127   2.68175   2.71776   2.73352   2.73474
 Alpha virt. eigenvalues --    2.75815   2.77410   2.80796   2.82635   2.85354
 Alpha virt. eigenvalues --    2.87137   2.89441   2.92178   2.93739   2.94867
 Alpha virt. eigenvalues --    2.97869   2.99094   3.00960   3.02677   3.05807
 Alpha virt. eigenvalues --    3.06402   3.07703   3.09315   3.13762   3.17093
 Alpha virt. eigenvalues --    3.17589   3.19238   3.20046   3.21242   3.22334
 Alpha virt. eigenvalues --    3.24167   3.25050   3.26607   3.27420   3.37866
 Alpha virt. eigenvalues --    3.40355   3.46023   3.46902   3.56200   3.58183
 Alpha virt. eigenvalues --    3.59499   3.62406   3.67928   3.75494   3.78622
 Alpha virt. eigenvalues --    3.80005   3.81570   3.82569   3.83286   3.83898
 Alpha virt. eigenvalues --    3.84750   3.86481   3.87645   3.89820   3.91558
 Alpha virt. eigenvalues --    3.97645   4.59389   4.63170   4.74472   4.82572
 Alpha virt. eigenvalues --    4.88928   4.92582   4.93409   5.07840   5.10766
 Alpha virt. eigenvalues --    5.17766
          Condensed to atoms (all electrons):
               1          2          3          4          5          6
     1  C    5.004768   0.411714   0.414473   0.337355  -0.056085   0.003801
     2  H    0.411714   0.572983  -0.028296  -0.038988   0.003071  -0.000108
     3  H    0.414473  -0.028296   0.587507  -0.046308  -0.004587   0.000106
     4  C    0.337355  -0.038988  -0.046308   4.952603   0.351934  -0.042765
     5  C   -0.056085   0.003071  -0.004587   0.351934   4.891804   0.407087
     6  H    0.003801  -0.000108   0.000106  -0.042765   0.407087   0.568858
     7  H   -0.003698  -0.000034   0.002378  -0.041506   0.397495  -0.026764
     8  H    0.000011  -0.000005  -0.000489  -0.045679   0.400946  -0.027466
     9  C   -0.047991  -0.001860   0.002531   0.697840  -0.046054  -0.002890
    10  H    0.003272   0.000031  -0.000118  -0.037842  -0.006525   0.002385
    11  C   -0.007749  -0.002811   0.000160  -0.050271   0.003364   0.000132
    12  H    0.000152   0.000184   0.000017  -0.000627  -0.000106  -0.000006
    13  H   -0.001745  -0.001657   0.000030  -0.000691   0.000109   0.000005
    14  H    0.000310  -0.000067  -0.000013  -0.000247  -0.000095  -0.000006
    15  C   -0.000099  -0.000043  -0.000004   0.000001  -0.000000   0.000000
    16  H   -0.000005   0.000002   0.000000   0.000000  -0.000000   0.000000
    17  H    0.000024  -0.000007  -0.000002  -0.000000   0.000000  -0.000000
    18  H   -0.000003  -0.000002   0.000003   0.000000  -0.000000   0.000000
    19  C   -0.004325   0.001388   0.000787   0.000041  -0.000003   0.000000
    20  C    0.000587   0.000200  -0.000015  -0.000018  -0.000000  -0.000000
    21  H   -0.000040   0.000022   0.000000   0.000001  -0.000000   0.000000
    22  H    0.000130  -0.000135  -0.000002  -0.000005   0.000000  -0.000000
    23  H   -0.000302  -0.000131  -0.000016  -0.000011  -0.000000   0.000000
    24  C   -0.061827  -0.000504  -0.000900   0.006443  -0.000149   0.000004
    25  H    0.000175   0.000111   0.001011  -0.000152   0.000010  -0.000000
    26  C    0.332330  -0.041801  -0.046074  -0.055544  -0.000661  -0.000109
    27  H   -0.042369  -0.003118   0.004477  -0.001813   0.000243  -0.000005
    28  H   -0.046841   0.004515  -0.001931  -0.002075  -0.000289  -0.000050
               7          8          9         10         11         12
     1  C   -0.003698   0.000011  -0.047991   0.003272  -0.007749   0.000152
     2  H   -0.000034  -0.000005  -0.001860   0.000031  -0.002811   0.000184
     3  H    0.002378  -0.000489   0.002531  -0.000118   0.000160   0.000017
     4  C   -0.041506  -0.045679   0.697840  -0.037842  -0.050271  -0.000627
     5  C    0.397495   0.400946  -0.046054  -0.006525   0.003364  -0.000106
     6  H   -0.026764  -0.027466  -0.002890   0.002385   0.000132  -0.000006
     7  H    0.591920  -0.037541  -0.000374   0.000216  -0.000105   0.000017
     8  H   -0.037541   0.596034  -0.001011   0.000135  -0.000101  -0.000004
     9  C   -0.000374  -0.001011   4.938970   0.404494   0.340494  -0.041523
    10  H    0.000216   0.000135   0.404494   0.558671  -0.041279  -0.001122
    11  C   -0.000105  -0.000101   0.340494  -0.041279   4.900974   0.401144
    12  H    0.000017  -0.000004  -0.041523  -0.001122   0.401144   0.583648
    13  H    0.000002  -0.000003  -0.043903   0.003299   0.409079  -0.027132
    14  H   -0.000004   0.000017  -0.041805  -0.001264   0.402169  -0.035462
    15  C   -0.000000  -0.000000  -0.000000   0.000000  -0.000000   0.000000
    16  H    0.000000   0.000000   0.000000   0.000000   0.000000   0.000000
    17  H   -0.000000   0.000000   0.000000  -0.000000  -0.000000  -0.000000
    18  H   -0.000000  -0.000000  -0.000000   0.000000   0.000000  -0.000000
    19  C    0.000000   0.000000  -0.000001   0.000000   0.000013  -0.000000
    20  C    0.000000  -0.000000   0.000015  -0.000000  -0.000147   0.000004
    21  H    0.000000  -0.000000   0.000000   0.000000   0.000003   0.000000
    22  H   -0.000000   0.000000   0.000000  -0.000000  -0.000009  -0.000000
    23  H   -0.000000   0.000000  -0.000045   0.000000   0.000074  -0.000013
    24  C    0.000004  -0.000111   0.000114   0.000002  -0.000031   0.000002
    25  H   -0.000001   0.000015  -0.000002  -0.000000   0.000000   0.000000
    26  C    0.000086   0.000609  -0.004911  -0.000113   0.000577  -0.000037
    27  H    0.000006  -0.000015   0.001406  -0.000046  -0.000082   0.000037
    28  H    0.000058   0.000197   0.000760   0.000001  -0.000033  -0.000000
              13         14         15         16         17         18
     1  C   -0.001745   0.000310  -0.000099  -0.000005   0.000024  -0.000003
     2  H   -0.001657  -0.000067  -0.000043   0.000002  -0.000007  -0.000002
     3  H    0.000030  -0.000013  -0.000004   0.000000  -0.000002   0.000003
     4  C   -0.000691  -0.000247   0.000001   0.000000  -0.000000   0.000000
     5  C    0.000109  -0.000095  -0.000000  -0.000000   0.000000  -0.000000
     6  H    0.000005  -0.000006   0.000000   0.000000  -0.000000   0.000000
     7  H    0.000002  -0.000004  -0.000000   0.000000  -0.000000  -0.000000
     8  H   -0.000003   0.000017  -0.000000   0.000000   0.000000  -0.000000
     9  C   -0.043903  -0.041805  -0.000000   0.000000   0.000000  -0.000000
    10  H    0.003299  -0.001264   0.000000   0.000000  -0.000000   0.000000
    11  C    0.409079   0.402169  -0.000000   0.000000  -0.000000   0.000000
    12  H   -0.027132  -0.035462   0.000000   0.000000  -0.000000  -0.000000
    13  H    0.577164  -0.029956   0.000000  -0.000000  -0.000000  -0.000000
    14  H   -0.029956   0.586720  -0.000000  -0.000000   0.000000  -0.000000
    15  C    0.000000  -0.000000   4.900112   0.398811   0.398238   0.406218
    16  H   -0.000000  -0.000000   0.398811   0.593607  -0.037806  -0.026549
    17  H   -0.000000   0.000000   0.398238  -0.037806   0.594542  -0.026703
    18  H   -0.000000  -0.000000   0.406218  -0.026549  -0.026703   0.566018
    19  C   -0.000026   0.000001   0.353753  -0.044274  -0.043899  -0.041639
    20  C   -0.000000  -0.000015  -0.064931  -0.001201  -0.001975   0.003785
    21  H   -0.000008  -0.000000  -0.002223   0.002766  -0.000456  -0.000053
    22  H    0.000079   0.000000  -0.002632  -0.000476   0.002756  -0.000032
    23  H    0.000412   0.000114   0.003725  -0.000031  -0.000068  -0.000113
    24  C    0.000026  -0.000009  -0.044415  -0.001270  -0.000422  -0.002632
    25  H   -0.000002   0.000000  -0.006963   0.000187   0.000182   0.002335
    26  C   -0.000737   0.000163   0.003126  -0.000131  -0.000068   0.000148
    27  H   -0.000475  -0.000140   0.000051   0.000007  -0.000005   0.000007
    28  H   -0.000010  -0.000000  -0.000094   0.000009  -0.000002  -0.000010
              19         20         21         22         23         24
     1  C   -0.004325   0.000587  -0.000040   0.000130  -0.000302  -0.061827
     2  H    0.001388   0.000200   0.000022  -0.000135  -0.000131  -0.000504
     3  H    0.000787  -0.000015   0.000000  -0.000002  -0.000016  -0.000900
     4  C    0.000041  -0.000018   0.000001  -0.000005  -0.000011   0.006443
     5  C   -0.000003  -0.000000  -0.000000   0.000000  -0.000000  -0.000149
     6  H    0.000000  -0.000000   0.000000  -0.000000   0.000000   0.000004
     7  H    0.000000   0.000000   0.000000  -0.000000  -0.000000   0.000004
     8  H    0.000000  -0.000000  -0.000000   0.000000   0.000000  -0.000111
     9  C   -0.000001   0.000015   0.000000   0.000000  -0.000045   0.000114
    10  H    0.000000  -0.000000   0.000000  -0.000000   0.000000   0.000002
    11  C    0.000013  -0.000147   0.000003  -0.000009   0.000074  -0.000031
    12  H   -0.000000   0.000004   0.000000  -0.000000  -0.000013   0.000002
    13  H   -0.000026  -0.000000  -0.000008   0.000079   0.000412   0.000026
    14  H    0.000001  -0.000015  -0.000000   0.000000   0.000114  -0.000009
    15  C    0.353753  -0.064931  -0.002223  -0.002632   0.003725  -0.044415
    16  H   -0.044274  -0.001201   0.002766  -0.000476  -0.000031  -0.001270
    17  H   -0.043899  -0.001975  -0.000456   0.002756  -0.000068  -0.000422
    18  H   -0.041639   0.003785  -0.000053  -0.000032  -0.000113  -0.002632
    19  C    4.914192   0.350332  -0.043537  -0.043385  -0.037848   0.697734
    20  C    0.350332   4.907254   0.399852   0.401208   0.407154  -0.044248
    21  H   -0.043537   0.399852   0.584669  -0.035759  -0.026060  -0.000365
    22  H   -0.043385   0.401208  -0.035759   0.587442  -0.028659  -0.000031
    23  H   -0.037848   0.407154  -0.026060  -0.028659   0.568221  -0.003253
    24  C    0.697734  -0.044248  -0.000365  -0.000031  -0.003253   4.962747
    25  H   -0.038449   0.003528  -0.000121  -0.000121   0.000061   0.403391
    26  C   -0.050100  -0.008144   0.000117   0.000367  -0.002069   0.338699
    27  H    0.000438  -0.002693   0.000113  -0.000076  -0.001675  -0.044060
    28  H    0.001583   0.000195   0.000021  -0.000014   0.000058  -0.041395
              25         26         27         28
     1  C    0.000175   0.332330  -0.042369  -0.046841
     2  H    0.000111  -0.041801  -0.003118   0.004515
     3  H    0.001011  -0.046074   0.004477  -0.001931
     4  C   -0.000152  -0.055544  -0.001813  -0.002075
     5  C    0.000010  -0.000661   0.000243  -0.000289
     6  H   -0.000000  -0.000109  -0.000005  -0.000050
     7  H   -0.000001   0.000086   0.000006   0.000058
     8  H    0.000015   0.000609  -0.000015   0.000197
     9  C   -0.000002  -0.004911   0.001406   0.000760
    10  H   -0.000000  -0.000113  -0.000046   0.000001
    11  C    0.000000   0.000577  -0.000082  -0.000033
    12  H    0.000000  -0.000037   0.000037  -0.000000
    13  H   -0.000002  -0.000737  -0.000475  -0.000010
    14  H    0.000000   0.000163  -0.000140  -0.000000
    15  C   -0.006963   0.003126   0.000051  -0.000094
    16  H    0.000187  -0.000131   0.000007   0.000009
    17  H    0.000182  -0.000068  -0.000005  -0.000002
    18  H    0.002335   0.000148   0.000007  -0.000010
    19  C   -0.038449  -0.050100   0.000438   0.001583
    20  C    0.003528  -0.008144  -0.002693   0.000195
    21  H   -0.000121   0.000117   0.000113   0.000021
    22  H   -0.000121   0.000367  -0.000076  -0.000014
    23  H    0.000061  -0.002069  -0.001675   0.000058
    24  C    0.403391   0.338699  -0.044060  -0.041395
    25  H    0.557389  -0.039113   0.003152  -0.003424
    26  C   -0.039113   4.979543   0.415850   0.413482
    27  H    0.003152   0.415850   0.575347  -0.028362
    28  H   -0.003424   0.413482  -0.028362   0.585267
 Mulliken charges:
               1
     1  C   -0.236021
     2  H    0.125346
     3  H    0.115272
     4  C    0.018322
     5  C   -0.341505
     6  H    0.117792
     7  H    0.117845
     8  H    0.114461
     9  C   -0.154256
    10  H    0.115801
    11  C   -0.355567
    12  H    0.120829
    13  H    0.116140
    14  H    0.119588
    15  C   -0.342631
    16  H    0.116356
    17  H    0.115672
    18  H    0.119222
    19  C    0.027222
    20  C   -0.350727
    21  H    0.121058
    22  H    0.119352
    23  H    0.120474
    24  C   -0.163542
    25  H    0.116803
    26  C   -0.235486
    27  H    0.123802
    28  H    0.118380
 Sum of Mulliken charges =  -0.00000
 Mulliken charges with hydrogens summed into heavy atoms:
               1
     1  C    0.004596
     4  C    0.018322
     5  C    0.008593
     9  C   -0.038454
    11  C    0.000991
    15  C    0.008618
    19  C    0.027222
    20  C    0.010156
    24  C   -0.046740
    26  C    0.006696
 Electronic spatial extent (au):  <R**2>=           2384.0070
 Charge=             -0.0000 electrons
 Dipole moment (field-independent basis, Debye):
    X=              0.3027    Y=              0.1253    Z=              0.0460  Tot=              0.3308
 Quadrupole moment (field-independent basis, Debye-Ang):
   XX=            -64.3023   YY=            -63.2901   ZZ=            -67.3956
   XY=              0.7521   XZ=              1.2367   YZ=             -0.3487
 Traceless Quadrupole moment (field-independent basis, Debye-Ang):
   XX=              0.6937   YY=              1.7059   ZZ=             -2.3996
   XY=              0.7521   XZ=              1.2367   YZ=             -0.3487
 Octapole moment (field-independent basis, Debye-Ang**2):
  XXX=              2.6682  YYY=             -2.9989  ZZZ=              0.8999  XYY=             -0.6416
  XXY=              4.0909  XXZ=             -2.0918  XZZ=              1.2120  YZZ=              1.4955
  YYZ=              0.6111  XYZ=             -0.3641
 Hexadecapole moment (field-independent basis, Debye-Ang**3):
 XXXX=          -2435.7180 YYYY=           -693.4923 ZZZZ=           -166.6416 XXXY=              2.3047
 XXXZ=             14.7515 YYYX=            -11.0526 YYYZ=             -1.4214 ZZZX=              2.8119
 ZZZY=             -0.6411 XXYY=           -520.1248 XXZZ=           -449.2342 YYZZ=           -138.3649
 XXYZ=             -4.2785 YYXZ=              0.5785 ZZXY=              5.9188
 N-N= 5.190879529413D+02 E-N=-1.942888645076D+03  KE= 3.887471637867D+02
 No NMR shielding tensors so no spin-rotation constants.
 Leave Link  601 at Fri Sep 17 14:50:10 2021, MaxMem=   524288000 cpu:               0.3 elap:               0.7
 (Enter /opt/gaussian/g16_legacy/l9999.exe)
 1\1\GINC-TRUENO91\FOpt\RMP2-FC\6-31G(d,p)\C10H18\JRAMOS\17-Sep-2021\0\
 \#p opt mp2/6-31g(d,p)\\Conformer number 2319. Energy MM = 23.242 kcal
 /mol\\0,1\C,0.6158443429,0.6638855533,0.8846411688\H,-0.2170725051,0.2
 096640226,1.4235732768\H,0.5549324008,1.7387609867,1.0780841905\C,1.94
 28548995,0.1418951038,1.3752107721\C,3.0932136805,1.1071575035,1.28358
 97366\H,4.0315996315,0.6412155327,1.581665344\H,2.9230668692,1.9757772
 679,1.9234138138\H,3.2097578914,1.481737944,0.2641859767\C,2.127111703
 5,-1.1153079807,1.8195545879\H,3.1301619738,-1.4000443481,2.1251007953
 \C,1.0885687763,-2.1887573612,1.9423441576\H,0.9998913813,-2.530647440
 1,2.9753054276\H,0.1070207186,-1.8549036301,1.6135734692\H,1.361448894
 8,-3.0589631654,1.3423572028\C,-3.2461408274,1.1851373681,-1.771102936
 5\H,-3.6343406011,0.749349814,-2.6945121527\H,-4.0554283818,1.14678687
 16,-1.0384426126\H,-3.0065480942,2.2302158239,-1.9612732761\C,-2.04504
 80313,0.4227762477,-1.2836290477\C,-2.296124694,-1.0325604719,-1.00110
 53722\H,-2.62957583,-1.5466300842,-1.9053839877\H,-3.095181394,-1.1400
 823123,-0.2643674037\H,-1.4181799959,-1.5486839233,-0.6208772574\C,-0.
 8545716935,1.0325127364,-1.1295081457\H,-0.8057299642,2.0967544177,-1.
 3459264598\C,0.4154700944,0.4159953515,-0.6227681227\H,0.4384381436,-0
 .6591839914,-0.8046903899\H,1.2646606101,0.8362421634,-1.168212755\\Ve
 rsion=EM64L-G16RevA.03\State=1-A\HF=-389.1567535\MP2=-390.5738646\RMSD
 =5.133e-09\RMSF=3.189e-06\Dipole=-0.1055096,-0.04284,-0.0234079\PG=C01
  [X(C10H18)]\\@


 "ANNA, YOU MUSN'T SPEAK OF OXIDIZED MURIATIC ACID
 ANYMORE, FROM NOW ON YOU MUST SAY CHLORINE."
   -- JENS JACOB BERZELIUS, IN 1820, TO HIS COOK, WHO HAD
 COMPLAINED OF THE SMELL OF THE FLASK SHE WAS CLEANING.
 Job cpu time:       0 days  1 hours 17 minutes 28.0 seconds.
 Elapsed time:       0 days  1 hours 17 minutes 30.1 seconds.
 File lengths (MBytes):  RWF=     32 Int=      0 D2E=      0 Chk=      7 Scr=      1
 Normal termination of Gaussian 16 at Fri Sep 17 14:50:10 2021.
