 Entering Gaussian System, Link 0=/opt/gaussian/g16_legacy/g16
 Input=01-IsoP_3577_gaussian.com
 Output=01-IsoP_3577_gaussian.log
 Initial command:
 /opt/gaussian/g16_legacy/l1.exe "/scratch-local/jramos/2661404/Gau-10909.inp" -scrdir="/scratch-local/jramos/2661404/"
 Entering Link 1 = /opt/gaussian/g16_legacy/l1.exe PID=     10910.
  
 Copyright (c) 1988,1990,1992,1993,1995,1998,2003,2009,2016,
            Gaussian, Inc.  All Rights Reserved.
  
 This is part of the Gaussian(R) 16 program.  It is based on
 the Gaussian(R) 09 system (copyright 2009, Gaussian, Inc.),
 the Gaussian(R) 03 system (copyright 2003, Gaussian, Inc.),
 the Gaussian(R) 98 system (copyright 1998, Gaussian, Inc.),
 the Gaussian(R) 94 system (copyright 1995, Gaussian, Inc.),
 the Gaussian 92(TM) system (copyright 1992, Gaussian, Inc.),
 the Gaussian 90(TM) system (copyright 1990, Gaussian, Inc.),
 the Gaussian 88(TM) system (copyright 1988, Gaussian, Inc.),
 the Gaussian 86(TM) system (copyright 1986, Carnegie Mellon
 University), and the Gaussian 82(TM) system (copyright 1983,
 Carnegie Mellon University). Gaussian is a federally registered
 trademark of Gaussian, Inc.
  
 This software contains proprietary and confidential information,
 including trade secrets, belonging to Gaussian, Inc.
  
 This software is provided under written license and may be
 used, copied, transmitted, or stored only in accord with that
 written license.
  
 The following legend is applicable only to US Government
 contracts under FAR:
  
                    RESTRICTED RIGHTS LEGEND
  
 Use, reproduction and disclosure by the US Government is
 subject to restrictions as set forth in subparagraphs (a)
 and (c) of the Commercial Computer Software - Restricted
 Rights clause in FAR 52.227-19.
  
 Gaussian, Inc.
 340 Quinnipiac St., Bldg. 40, Wallingford CT 06492
  
  
 ---------------------------------------------------------------
 Warning -- This program may not be used in any manner that
 competes with the business of Gaussian, Inc. or will provide
 assistance to any competitor of Gaussian, Inc.  The licensee
 of this program is prohibited from giving any competitor of
 Gaussian, Inc. access to this program.  By using this program,
 the user acknowledges that Gaussian, Inc. is engaged in the
 business of creating and licensing software in the field of
 computational chemistry and represents and warrants to the
 licensee that it is not a competitor of Gaussian, Inc. and that
 it will not use this program in any manner prohibited above.
 ---------------------------------------------------------------
  

 Cite this work as:
 Gaussian 16, Revision A.03,
 M. J. Frisch, G. W. Trucks, H. B. Schlegel, G. E. Scuseria, 
 M. A. Robb, J. R. Cheeseman, G. Scalmani, V. Barone, 
 G. A. Petersson, H. Nakatsuji, X. Li, M. Caricato, A. V. Marenich, 
 J. Bloino, B. G. Janesko, R. Gomperts, B. Mennucci, H. P. Hratchian, 
 J. V. Ortiz, A. F. Izmaylov, J. L. Sonnenberg, D. Williams-Young, 
 F. Ding, F. Lipparini, F. Egidi, J. Goings, B. Peng, A. Petrone, 
 T. Henderson, D. Ranasinghe, V. G. Zakrzewski, J. Gao, N. Rega, 
 G. Zheng, W. Liang, M. Hada, M. Ehara, K. Toyota, R. Fukuda, 
 J. Hasegawa, M. Ishida, T. Nakajima, Y. Honda, O. Kitao, H. Nakai, 
 T. Vreven, K. Throssell, J. A. Montgomery, Jr., J. E. Peralta, 
 F. Ogliaro, M. J. Bearpark, J. J. Heyd, E. N. Brothers, K. N. Kudin, 
 V. N. Staroverov, T. A. Keith, R. Kobayashi, J. Normand, 
 K. Raghavachari, A. P. Rendell, J. C. Burant, S. S. Iyengar, 
 J. Tomasi, M. Cossi, J. M. Millam, M. Klene, C. Adamo, R. Cammi, 
 J. W. Ochterski, R. L. Martin, K. Morokuma, O. Farkas, 
 J. B. Foresman, and D. J. Fox, Gaussian, Inc., Wallingford CT, 2016.
 
 ******************************************
 Gaussian 16:  EM64L-G16RevA.03 25-Dec-2016
                17-Sep-2021 
 ******************************************
 %chk=01-IsoP_3577_gaussian.chk
 %nproc=1
 Will use up to    1 processors via shared memory.
 %mem=4000Mb
 ---------------------
 #p opt mp2/6-31g(d,p)
 ---------------------
 1/18=20,19=15,38=1/1,3;
 2/9=110,12=2,17=6,18=5,40=1/2;
 3/5=1,6=6,7=101,11=9,25=1,30=1,71=1/1,2,3;
 4//1;
 5/5=2,38=5/2;
 8/6=4,10=2/1;
 9/15=2,16=-3/6;
 10/5=1/2;
 6/7=2,8=2,9=2,10=2/1;
 7/12=2/1,2,3,16;
 1/18=20,19=15/3(2);
 2/9=110/2;
 99//99;
 2/9=110/2;
 3/5=1,6=6,7=101,11=9,25=1,30=1,71=1/1,2,3;
 4/5=5,16=3,69=1/1;
 5/5=2,38=5/2;
 8/6=4,10=2/1;
 9/15=2,16=-3/6;
 10/5=1/2;
 7/12=2/1,2,3,16;
 1/18=20,19=15/3(-8);
 2/9=110/2;
 6/7=2,8=2,9=2,10=2/1;
 99//99;
 Leave Link    1 at Fri Sep 17 15:24:57 2021, MaxMem=   524288000 cpu:               0.0 elap:               0.1
 (Enter /opt/gaussian/g16_legacy/l101.exe)
 --------------------------------------------------
 Conformer number 3577. Energy MM = 23.242 kcal/mol
 --------------------------------------------------
 Symbolic Z-matrix:
 Charge =  0 Multiplicity = 1
 C                     0.8155   -0.1542    1.0149 
 H                     0.7404   -0.4361    2.0737 
 H                     0.7383   -1.1003    0.4659 
 C                     2.1626    0.4946    0.7713 
 C                     2.6666    1.3616    1.8964 
 H                     1.972     2.1863    2.0847 
 H                     3.6463    1.7988    1.6763 
 H                     2.7659    0.7728    2.8141 
 C                     2.9016    0.3188   -0.3421 
 H                     3.8699    0.8141   -0.4087 
 C                     2.5446   -0.4807   -1.5551 
 H                     1.5151   -0.8456   -1.5491 
 H                     3.216    -1.34     -1.6447 
 H                     2.6647    0.14     -2.4489 
 C                    -2.2439   -0.5403   -1.487 
 H                    -2.9535    0.0817   -2.0421 
 H                    -1.2342   -0.2311   -1.7665 
 H                    -2.3607   -1.5773   -1.8203 
 C                    -2.513    -0.4397   -0.0108 
 C                    -3.8304   -1.0295    0.4205 
 H                    -3.9963   -0.9333    1.4987 
 H                    -3.8688   -2.0952    0.1721 
 H                    -4.6566   -0.5228   -0.0891 
 C                    -1.6772    0.1087    0.8926 
 H                    -1.9733    0.1072    1.9418 
 C                    -0.348     0.7667    0.6337 
 H                    -0.2544    1.0868   -0.4092 
 H                    -0.3093    1.688     1.2286 
 
 ITRead=  0  0  0  0  0  0  0  0  0  0  0  0  0  0  0  0  0  0  0  0
 ITRead=  0  0  0  0  0  0  0  0
 MicOpt= -1 -1 -1 -1 -1 -1 -1 -1 -1 -1 -1 -1 -1 -1 -1 -1 -1 -1 -1 -1
 MicOpt= -1 -1 -1 -1 -1 -1 -1 -1
 NAtoms=     28 NQM=       28 NQMF=       0 NMMI=      0 NMMIF=      0
                NMic=       0 NMicF=      0.
                    Isotopes and Nuclear Properties:
 (Nuclear quadrupole moments (NQMom) in fm**2, nuclear magnetic moments (NMagM)
  in nuclear magnetons)

  Atom         1           2           3           4           5           6           7           8           9          10
 IAtWgt=          12           1           1          12          12           1           1           1          12           1
 AtmWgt=  12.0000000   1.0078250   1.0078250  12.0000000  12.0000000   1.0078250   1.0078250   1.0078250  12.0000000   1.0078250
 NucSpn=           0           1           1           0           0           1           1           1           0           1
 AtZEff=  -0.0000000  -0.0000000  -0.0000000  -0.0000000  -0.0000000  -0.0000000  -0.0000000  -0.0000000  -0.0000000  -0.0000000
 NQMom=    0.0000000   0.0000000   0.0000000   0.0000000   0.0000000   0.0000000   0.0000000   0.0000000   0.0000000   0.0000000
 NMagM=    0.0000000   2.7928460   2.7928460   0.0000000   0.0000000   2.7928460   2.7928460   2.7928460   0.0000000   2.7928460
 AtZNuc=   6.0000000   1.0000000   1.0000000   6.0000000   6.0000000   1.0000000   1.0000000   1.0000000   6.0000000   1.0000000

  Atom        11          12          13          14          15          16          17          18          19          20
 IAtWgt=          12           1           1           1          12           1           1           1          12          12
 AtmWgt=  12.0000000   1.0078250   1.0078250   1.0078250  12.0000000   1.0078250   1.0078250   1.0078250  12.0000000  12.0000000
 NucSpn=           0           1           1           1           0           1           1           1           0           0
 AtZEff=  -0.0000000  -0.0000000  -0.0000000  -0.0000000  -0.0000000  -0.0000000  -0.0000000  -0.0000000  -0.0000000  -0.0000000
 NQMom=    0.0000000   0.0000000   0.0000000   0.0000000   0.0000000   0.0000000   0.0000000   0.0000000   0.0000000   0.0000000
 NMagM=    0.0000000   2.7928460   2.7928460   2.7928460   0.0000000   2.7928460   2.7928460   2.7928460   0.0000000   0.0000000
 AtZNuc=   6.0000000   1.0000000   1.0000000   1.0000000   6.0000000   1.0000000   1.0000000   1.0000000   6.0000000   6.0000000

  Atom        21          22          23          24          25          26          27          28
 IAtWgt=           1           1           1          12           1          12           1           1
 AtmWgt=   1.0078250   1.0078250   1.0078250  12.0000000   1.0078250  12.0000000   1.0078250   1.0078250
 NucSpn=           1           1           1           0           1           0           1           1
 AtZEff=  -0.0000000  -0.0000000  -0.0000000  -0.0000000  -0.0000000  -0.0000000  -0.0000000  -0.0000000
 NQMom=    0.0000000   0.0000000   0.0000000   0.0000000   0.0000000   0.0000000   0.0000000   0.0000000
 NMagM=    2.7928460   2.7928460   2.7928460   0.0000000   2.7928460   0.0000000   2.7928460   2.7928460
 AtZNuc=   1.0000000   1.0000000   1.0000000   6.0000000   1.0000000   6.0000000   1.0000000   1.0000000
 Leave Link  101 at Fri Sep 17 15:24:58 2021, MaxMem=   524288000 cpu:               0.3 elap:               0.3
 (Enter /opt/gaussian/g16_legacy/l103.exe)

 GradGradGradGradGradGradGradGradGradGradGradGradGradGradGradGradGradGrad
 Berny optimization.
 Initialization pass.
                           ----------------------------
                           !    Initial Parameters    !
                           ! (Angstroms and Degrees)  !
 --------------------------                            --------------------------
 ! Name  Definition              Value          Derivative Info.                !
 --------------------------------------------------------------------------------
 ! R1    R(1,2)                  1.0983         estimate D2E/DX2                !
 ! R2    R(1,3)                  1.0966         estimate D2E/DX2                !
 ! R3    R(1,4)                  1.5149         estimate D2E/DX2                !
 ! R4    R(1,26)                 1.532          estimate D2E/DX2                !
 ! R5    R(4,5)                  1.5072         estimate D2E/DX2                !
 ! R6    R(4,9)                  1.3478         estimate D2E/DX2                !
 ! R7    R(5,6)                  1.0946         estimate D2E/DX2                !
 ! R8    R(5,7)                  1.0952         estimate D2E/DX2                !
 ! R9    R(5,8)                  1.0949         estimate D2E/DX2                !
 ! R10   R(9,10)                 1.0897         estimate D2E/DX2                !
 ! R11   R(9,11)                 1.496          estimate D2E/DX2                !
 ! R12   R(11,12)                1.0923         estimate D2E/DX2                !
 ! R13   R(11,13)                1.0942         estimate D2E/DX2                !
 ! R14   R(11,14)                1.0948         estimate D2E/DX2                !
 ! R15   R(15,16)                1.0948         estimate D2E/DX2                !
 ! R16   R(15,17)                1.0923         estimate D2E/DX2                !
 ! R17   R(15,18)                1.0955         estimate D2E/DX2                !
 ! R18   R(15,19)                1.5039         estimate D2E/DX2                !
 ! R19   R(19,20)                1.5065         estimate D2E/DX2                !
 ! R20   R(19,24)                1.3474         estimate D2E/DX2                !
 ! R21   R(20,21)                1.0951         estimate D2E/DX2                !
 ! R22   R(20,22)                1.0949         estimate D2E/DX2                !
 ! R23   R(20,23)                1.095          estimate D2E/DX2                !
 ! R24   R(24,25)                1.0902         estimate D2E/DX2                !
 ! R25   R(24,26)                1.5056         estimate D2E/DX2                !
 ! R26   R(26,27)                1.0949         estimate D2E/DX2                !
 ! R27   R(26,28)                1.0974         estimate D2E/DX2                !
 ! A1    A(2,1,3)              104.8562         estimate D2E/DX2                !
 ! A2    A(2,1,4)              109.0117         estimate D2E/DX2                !
 ! A3    A(2,1,26)             110.0134         estimate D2E/DX2                !
 ! A4    A(3,1,4)              110.5855         estimate D2E/DX2                !
 ! A5    A(3,1,26)             109.9121         estimate D2E/DX2                !
 ! A6    A(4,1,26)             112.2023         estimate D2E/DX2                !
 ! A7    A(1,4,5)              115.0676         estimate D2E/DX2                !
 ! A8    A(1,4,9)              124.3689         estimate D2E/DX2                !
 ! A9    A(5,4,9)              120.5531         estimate D2E/DX2                !
 ! A10   A(4,5,6)              110.4652         estimate D2E/DX2                !
 ! A11   A(4,5,7)              112.257          estimate D2E/DX2                !
 ! A12   A(4,5,8)              110.2841         estimate D2E/DX2                !
 ! A13   A(6,5,7)              107.5462         estimate D2E/DX2                !
 ! A14   A(6,5,8)              108.5757         estimate D2E/DX2                !
 ! A15   A(7,5,8)              107.5782         estimate D2E/DX2                !
 ! A16   A(4,9,10)             118.5822         estimate D2E/DX2                !
 ! A17   A(4,9,11)             127.4925         estimate D2E/DX2                !
 ! A18   A(10,9,11)            113.9175         estimate D2E/DX2                !
 ! A19   A(9,11,12)            113.516          estimate D2E/DX2                !
 ! A20   A(9,11,13)            109.8571         estimate D2E/DX2                !
 ! A21   A(9,11,14)            109.4385         estimate D2E/DX2                !
 ! A22   A(12,11,13)           108.4477         estimate D2E/DX2                !
 ! A23   A(12,11,14)           107.2947         estimate D2E/DX2                !
 ! A24   A(13,11,14)           108.1248         estimate D2E/DX2                !
 ! A25   A(16,15,17)           107.9729         estimate D2E/DX2                !
 ! A26   A(16,15,18)           108.3271         estimate D2E/DX2                !
 ! A27   A(16,15,19)           110.1036         estimate D2E/DX2                !
 ! A28   A(17,15,18)           106.7772         estimate D2E/DX2                !
 ! A29   A(17,15,19)           113.4296         estimate D2E/DX2                !
 ! A30   A(18,15,19)           110.0529         estimate D2E/DX2                !
 ! A31   A(15,19,20)           114.2876         estimate D2E/DX2                !
 ! A32   A(15,19,24)           125.0554         estimate D2E/DX2                !
 ! A33   A(20,19,24)           120.6542         estimate D2E/DX2                !
 ! A34   A(19,20,21)           112.3313         estimate D2E/DX2                !
 ! A35   A(19,20,22)           110.2903         estimate D2E/DX2                !
 ! A36   A(19,20,23)           110.2072         estimate D2E/DX2                !
 ! A37   A(21,20,22)           107.6704         estimate D2E/DX2                !
 ! A38   A(21,20,23)           107.6525         estimate D2E/DX2                !
 ! A39   A(22,20,23)           108.5626         estimate D2E/DX2                !
 ! A40   A(19,24,25)           118.4401         estimate D2E/DX2                !
 ! A41   A(19,24,26)           127.606          estimate D2E/DX2                !
 ! A42   A(25,24,26)           113.9466         estimate D2E/DX2                !
 ! A43   A(1,26,24)            111.4069         estimate D2E/DX2                !
 ! A44   A(1,26,27)            110.3532         estimate D2E/DX2                !
 ! A45   A(1,26,28)            110.0589         estimate D2E/DX2                !
 ! A46   A(24,26,27)           111.5325         estimate D2E/DX2                !
 ! A47   A(24,26,28)           107.7482         estimate D2E/DX2                !
 ! A48   A(27,26,28)           105.5394         estimate D2E/DX2                !
 ! D1    D(2,1,4,5)            -36.6396         estimate D2E/DX2                !
 ! D2    D(2,1,4,9)            142.1838         estimate D2E/DX2                !
 ! D3    D(3,1,4,5)           -151.4169         estimate D2E/DX2                !
 ! D4    D(3,1,4,9)             27.4065         estimate D2E/DX2                !
 ! D5    D(26,1,4,5)            85.4741         estimate D2E/DX2                !
 ! D6    D(26,1,4,9)           -95.7026         estimate D2E/DX2                !
 ! D7    D(2,1,26,24)          -58.0248         estimate D2E/DX2                !
 ! D8    D(2,1,26,27)          177.5097         estimate D2E/DX2                !
 ! D9    D(2,1,26,28)           61.4284         estimate D2E/DX2                !
 ! D10   D(3,1,26,24)           56.9462         estimate D2E/DX2                !
 ! D11   D(3,1,26,27)          -67.5193         estimate D2E/DX2                !
 ! D12   D(3,1,26,28)          176.3994         estimate D2E/DX2                !
 ! D13   D(4,1,26,24)         -179.5665         estimate D2E/DX2                !
 ! D14   D(4,1,26,27)           55.968          estimate D2E/DX2                !
 ! D15   D(4,1,26,28)          -60.1133         estimate D2E/DX2                !
 ! D16   D(1,4,5,6)            -60.537          estimate D2E/DX2                !
 ! D17   D(1,4,5,7)            179.4352         estimate D2E/DX2                !
 ! D18   D(1,4,5,8)             59.4913         estimate D2E/DX2                !
 ! D19   D(9,4,5,6)            120.5908         estimate D2E/DX2                !
 ! D20   D(9,4,5,7)              0.563          estimate D2E/DX2                !
 ! D21   D(9,4,5,8)           -119.3809         estimate D2E/DX2                !
 ! D22   D(1,4,9,10)          -178.5958         estimate D2E/DX2                !
 ! D23   D(1,4,9,11)             2.4872         estimate D2E/DX2                !
 ! D24   D(5,4,9,10)             0.1666         estimate D2E/DX2                !
 ! D25   D(5,4,9,11)          -178.7505         estimate D2E/DX2                !
 ! D26   D(4,9,11,12)            7.9213         estimate D2E/DX2                !
 ! D27   D(4,9,11,13)         -113.6842         estimate D2E/DX2                !
 ! D28   D(4,9,11,14)          127.748          estimate D2E/DX2                !
 ! D29   D(10,9,11,12)        -171.0384         estimate D2E/DX2                !
 ! D30   D(10,9,11,13)          67.3561         estimate D2E/DX2                !
 ! D31   D(10,9,11,14)         -51.2117         estimate D2E/DX2                !
 ! D32   D(16,15,19,20)         66.5525         estimate D2E/DX2                !
 ! D33   D(16,15,19,24)       -114.0569         estimate D2E/DX2                !
 ! D34   D(17,15,19,20)       -172.3344         estimate D2E/DX2                !
 ! D35   D(17,15,19,24)          7.0562         estimate D2E/DX2                !
 ! D36   D(18,15,19,20)        -52.7917         estimate D2E/DX2                !
 ! D37   D(18,15,19,24)        126.5989         estimate D2E/DX2                !
 ! D38   D(15,19,20,21)       -179.6292         estimate D2E/DX2                !
 ! D39   D(15,19,20,22)         60.2563         estimate D2E/DX2                !
 ! D40   D(15,19,20,23)        -59.5945         estimate D2E/DX2                !
 ! D41   D(24,19,20,21)          0.9508         estimate D2E/DX2                !
 ! D42   D(24,19,20,22)       -119.1638         estimate D2E/DX2                !
 ! D43   D(24,19,20,23)        120.9854         estimate D2E/DX2                !
 ! D44   D(15,19,24,25)       -178.8299         estimate D2E/DX2                !
 ! D45   D(15,19,24,26)          2.2169         estimate D2E/DX2                !
 ! D46   D(20,19,24,25)          0.5244         estimate D2E/DX2                !
 ! D47   D(20,19,24,26)       -178.4288         estimate D2E/DX2                !
 ! D48   D(19,24,26,1)        -103.3695         estimate D2E/DX2                !
 ! D49   D(19,24,26,27)         20.4302         estimate D2E/DX2                !
 ! D50   D(19,24,26,28)        135.8141         estimate D2E/DX2                !
 ! D51   D(25,24,26,1)          77.6377         estimate D2E/DX2                !
 ! D52   D(25,24,26,27)       -158.5627         estimate D2E/DX2                !
 ! D53   D(25,24,26,28)        -43.1788         estimate D2E/DX2                !
 --------------------------------------------------------------------------------
 Trust Radius=3.00D-01 FncErr=1.00D-07 GrdErr=1.00D-07 EigMax=2.50D+02 EigMin=1.00D-04
 Number of steps in this run=    138 maximum allowed number of steps=    168.
 GradGradGradGradGradGradGradGradGradGradGradGradGradGradGradGradGradGrad

 Leave Link  103 at Fri Sep 17 15:24:58 2021, MaxMem=   524288000 cpu:               0.0 elap:               0.2
 (Enter /opt/gaussian/g16_legacy/l202.exe)
                          Input orientation:                          
 ---------------------------------------------------------------------
 Center     Atomic      Atomic             Coordinates (Angstroms)
 Number     Number       Type             X           Y           Z
 ---------------------------------------------------------------------
      1          6           0        0.815500   -0.154200    1.014900
      2          1           0        0.740400   -0.436100    2.073700
      3          1           0        0.738300   -1.100300    0.465900
      4          6           0        2.162600    0.494600    0.771300
      5          6           0        2.666600    1.361600    1.896400
      6          1           0        1.972000    2.186300    2.084700
      7          1           0        3.646300    1.798800    1.676300
      8          1           0        2.765900    0.772800    2.814100
      9          6           0        2.901600    0.318800   -0.342100
     10          1           0        3.869900    0.814100   -0.408700
     11          6           0        2.544600   -0.480700   -1.555100
     12          1           0        1.515100   -0.845600   -1.549100
     13          1           0        3.216000   -1.340000   -1.644700
     14          1           0        2.664700    0.140000   -2.448900
     15          6           0       -2.243900   -0.540300   -1.487000
     16          1           0       -2.953500    0.081700   -2.042100
     17          1           0       -1.234200   -0.231100   -1.766500
     18          1           0       -2.360700   -1.577300   -1.820300
     19          6           0       -2.513000   -0.439700   -0.010800
     20          6           0       -3.830400   -1.029500    0.420500
     21          1           0       -3.996300   -0.933300    1.498700
     22          1           0       -3.868800   -2.095200    0.172100
     23          1           0       -4.656600   -0.522800   -0.089100
     24          6           0       -1.677200    0.108700    0.892600
     25          1           0       -1.973300    0.107200    1.941800
     26          6           0       -0.348000    0.766700    0.633700
     27          1           0       -0.254400    1.086800   -0.409200
     28          1           0       -0.309300    1.688000    1.228600
 ---------------------------------------------------------------------
                    Distance matrix (angstroms):
                    1          2          3          4          5
     1  C    0.000000
     2  H    1.098255   0.000000
     3  H    1.096570   1.739594   0.000000
     4  C    1.514913   2.141285   2.160001   0.000000
     5  C    2.549757   2.640721   3.438840   1.507168   0.000000
     6  H    2.821330   2.897230   3.865782   2.150162   1.094558
     7  H    3.502155   3.687406   4.280924   2.172862   1.095171
     8  H    2.810785   2.472303   3.624046   2.148115   1.094860
     9  C    2.533178   3.328175   2.710457   1.347845   2.480633
    10  H    3.506223   4.185580   3.773165   2.099846   2.657287
    11  C    3.114689   4.052816   2.780479   2.551327   3.914308
    12  H    2.746192   3.727268   2.174515   2.756746   4.250783
    13  H    3.773857   4.557645   3.263600   3.211303   4.487747
    14  H    3.937513   4.948609   3.707482   3.278343   4.513750
    15  C    3.970958   4.647095   3.608453   5.058476   6.259204
    16  H    4.858627   5.554532   4.616988   5.853220   6.981078
    17  H    3.455918   4.322986   3.103204   4.301781   5.582989
    18  H    4.489078   5.107093   3.880469   5.609760   6.908309
    19  C    3.494636   3.863905   3.351804   4.831753   5.806061
    20  C    4.764856   4.896673   4.569474   6.193706   7.078605
    21  H    4.898416   4.797308   4.848814   6.363966   7.058255
    22  H    5.140084   5.254847   4.722448   6.591198   7.591715
    23  H    5.594512   5.814880   5.454033   6.948157   7.818084
    24  C    2.509507   2.745286   2.734665   3.861049   4.630980
    25  H    2.950403   2.770693   3.314983   4.315764   4.806688
    26  C    1.532026   2.169088   2.166540   2.529048   3.322067
    27  H    2.170905   3.077929   2.556298   2.754300   3.731427
    28  H    2.168996   2.515525   3.074702   2.782735   3.067324
                    6          7          8          9         10
     6  H    0.000000
     7  H    1.766417   0.000000
     8  H    1.777719   1.767023   0.000000
     9  C    3.200167   2.611306   3.191572   0.000000
    10  H    3.420819   2.316648   3.406899   1.089662   0.000000
    11  C    4.548506   4.105096   4.550840   1.496001   2.178798
    12  H    4.754543   4.683809   4.818842   2.176019   3.098419
    13  H    5.281170   4.589800   4.954534   2.132424   2.568157
    14  H    5.022022   4.553288   5.301872   2.127604   2.463602
    15  C    6.161591   7.083242   6.732146   5.340882   6.354186
    16  H    6.761684   7.767386   7.534709   6.101509   7.054303
    17  H    5.563747   6.308141   6.163644   4.408645   5.384041
    18  H    6.941614   7.727115   7.299497   5.785505   6.821421
    19  C    5.603768   6.767139   6.108764   5.477497   6.517035
    20  C    6.839501   8.091808   7.244914   6.907915   7.961222
    21  H    6.759875   8.118205   7.097070   7.248263   8.280621
    22  H    7.490275   8.596661   7.695767   7.206255   8.287873
    23  H    7.483513   8.800262   8.074692   7.609119   8.636588
    24  C    4.365110   5.640060   4.886136   4.747003   5.741192
    25  H    4.461891   5.874683   4.864560   5.387543   6.337787
    26  C    3.082704   4.255194   3.801389   3.422382   4.345058
    27  H    3.519275   4.480147   4.428371   3.248794   4.133306
    28  H    2.487075   3.982397   3.578862   3.827752   4.572763
                   11         12         13         14         15
    11  C    0.000000
    12  H    1.092272   0.000000
    13  H    1.094168   1.773875   0.000000
    14  H    1.094793   1.761428   1.772306   0.000000
    15  C    4.789355   3.771889   5.520407   5.048011   0.000000
    16  H    5.548204   4.590351   6.343649   5.633210   1.094784
    17  H    3.792930   2.825513   4.587894   3.975526   1.092346
    18  H    5.033372   3.953576   5.584508   5.347794   1.095491
    19  C    5.288276   4.330902   6.025082   5.752300   1.503895
    20  C    6.696626   5.699782   7.349368   7.196354   2.528805
    21  H    7.232836   6.298596   7.878048   7.816933   3.484216
    22  H    6.835315   5.788818   7.352923   7.385958   2.794750
    23  H    7.349028   6.350250   8.066321   7.720712   2.788468
    24  C    4.915508   4.130783   5.699125   5.478932   2.530780
    25  H    5.743288   5.026246   6.471955   6.386734   3.499879
    26  C    3.835882   3.291697   4.725610   4.355633   3.130504
    27  H    3.406544   2.857389   4.411292   3.684827   2.786973
    28  H    4.538391   4.178897   5.463733   4.976443   4.010297
                   16         17         18         19         20
    16  H    0.000000
    17  H    1.769122   0.000000
    18  H    1.775637   1.756175   0.000000
    19  C    2.142913   2.182046   2.142806   0.000000
    20  C    2.840443   3.487215   2.735194   1.506462   0.000000
    21  H    3.828175   4.334030   3.755754   2.173111   1.095122
    22  H    3.237182   3.764858   2.551910   2.147633   1.094940
    23  H    2.660861   3.822510   3.062708   2.146639   1.095008
    24  C    3.200334   2.717080   3.266435   1.347381   2.480856
    25  H    4.102792   3.796341   4.140171   2.098338   2.656174
    26  C    3.797073   2.746255   3.945556   2.560860   3.924143
    27  H    3.310850   2.130524   3.677653   2.755032   4.237323
    28  H    4.502163   3.675460   4.915915   3.304469   4.520617
                   21         22         23         24         25
    21  H    0.000000
    22  H    1.768088   0.000000
    23  H    1.767941   1.778003   0.000000
    24  C    2.613684   3.190518   3.199899   0.000000
    25  H    2.317651   3.402253   3.423675   1.090183   0.000000
    26  C    4.116833   4.560656   4.555138   1.505578   2.188074
    27  H    4.660762   4.850456   4.698153   2.162342   3.072692
    28  H    4.531902   5.300833   5.052028   2.116184   2.403431
                   26         27         28
    26  C    0.000000
    27  H    1.094927   0.000000
    28  H    1.097359   1.745521   0.000000
 Stoichiometry    C10H18
 Framework group  C1[X(C10H18)]
 Deg. of freedom    78
 Full point group                 C1      NOp   1
 Largest Abelian subgroup         C1      NOp   1
 Largest concise Abelian subgroup C1      NOp   1
                         Standard orientation:                         
 ---------------------------------------------------------------------
 Center     Atomic      Atomic             Coordinates (Angstroms)
 Number     Number       Type             X           Y           Z
 ---------------------------------------------------------------------
      1          6           0       -0.793750   -0.586525    0.589225
      2          1           0       -0.745996   -1.484311    1.219990
      3          1           0       -0.484614    0.235336    1.246071
      4          6           0       -2.220938   -0.386993    0.122020
      5          6           0       -2.975669   -1.655035   -0.184580
      6          1           0       -2.478685   -2.212174   -0.984992
      7          1           0       -4.003275   -1.458211   -0.508133
      8          1           0       -3.025235   -2.291704    0.704755
      9          6           0       -2.820208    0.813953   -0.001637
     10          1           0       -3.860370    0.846734   -0.324671
     11          6           0       -2.215774    2.161837    0.234764
     12          1           0       -1.137466    2.131923    0.406276
     13          1           0       -2.690811    2.635784    1.099007
     14          1           0       -2.388712    2.797168   -0.639889
     15          6           0        2.466001    1.425894   -0.456097
     16          1           0        3.076460    1.626170   -1.342541
     17          1           0        1.439574    1.725949   -0.678883
     18          1           0        2.815348    2.072774    0.356062
     19          6           0        2.593425   -0.018253   -0.056218
     20          6           0        3.965085   -0.407945    0.429700
     21          1           0        4.023646   -1.466061    0.705840
     22          1           0        4.237070    0.181247    1.311613
     23          1           0        4.709114   -0.227407   -0.353161
     24          6           0        1.596344   -0.923552   -0.097427
     25          1           0        1.804002   -1.940205    0.236928
     26          6           0        0.185966   -0.715546   -0.581507
     27          1           0        0.111200    0.157103   -1.238591
     28          1           0       -0.084151   -1.577130   -1.205131
 ---------------------------------------------------------------------
 Rotational constants (GHZ):           2.2181239           0.5802277           0.4854224
 Leave Link  202 at Fri Sep 17 15:24:58 2021, MaxMem=   524288000 cpu:               0.0 elap:               0.1
 (Enter /opt/gaussian/g16_legacy/l301.exe)
 Standard basis: 6-31G(d,p) (6D, 7F)
 Ernie: Thresh=  0.10000D-02 Tol=  0.10000D-05 Strict=F.
 There are   240 symmetry adapted cartesian basis functions of A   symmetry.
 There are   240 symmetry adapted basis functions of A   symmetry.
   240 basis functions,   406 primitive gaussians,   240 cartesian basis functions
    39 alpha electrons       39 beta electrons
       nuclear repulsion energy       516.4348164840 Hartrees.
 IExCor=    0 DFT=F Ex=HF Corr=None ExCW=0 ScaHFX=  1.000000
 ScaDFX=  1.000000  1.000000  1.000000  1.000000 ScalE2=  1.000000  1.000000
 IRadAn=      5 IRanWt=     -1 IRanGd=            0 ICorTp=0 IEmpDi=  4
 NAtoms=   28 NActive=   28 NUniq=   28 SFac= 1.00D+00 NAtFMM=   60 NAOKFM=F Big=F
 Integral buffers will be    131072 words long.
 Raffenetti 1 integral format.
 Two-electron integral symmetry is turned on.
 Leave Link  301 at Fri Sep 17 15:24:59 2021, MaxMem=   524288000 cpu:               0.1 elap:               0.3
 (Enter /opt/gaussian/g16_legacy/l302.exe)
 NPDir=0 NMtPBC=     1 NCelOv=     1 NCel=       1 NClECP=     1 NCelD=      1
         NCelK=      1 NCelE2=     1 NClLst=     1 CellRange=     0.0.
 One-electron integrals computed using PRISM.
 One-electron integral symmetry used in STVInt
 NBasis=   240 RedAO= T EigKep=  2.10D-03  NBF=   240
 NBsUse=   240 1.00D-06 EigRej= -1.00D+00 NBFU=   240
 Leave Link  302 at Fri Sep 17 15:24:59 2021, MaxMem=   524288000 cpu:               0.3 elap:               0.7
 (Enter /opt/gaussian/g16_legacy/l303.exe)
 DipDrv:  MaxL=1.
 Leave Link  303 at Fri Sep 17 15:25:00 2021, MaxMem=   524288000 cpu:               0.1 elap:               0.1
 (Enter /opt/gaussian/g16_legacy/l401.exe)
 ExpMin= 1.61D-01 ExpMax= 3.05D+03 ExpMxC= 4.57D+02 IAcc=3 IRadAn=         5 AccDes= 0.00D+00
 Harris functional with IExCor=  205 and IRadAn=       5 diagonalized for initial guess.
 HarFok:  IExCor=  205 AccDes= 0.00D+00 IRadAn=         5 IDoV= 1 UseB2=F ITyADJ=14
 ICtDFT=  3500011 ScaDFX=  1.000000  1.000000  1.000000  1.000000
 FoFCou: FMM=F IPFlag=           0 FMFlag=      100000 FMFlg1=           0
         NFxFlg=           0 DoJE=T BraDBF=F KetDBF=T FulRan=T
         wScrn=  0.000000 ICntrl=       500 IOpCl=  0 I1Cent=   200000004 NGrid=           0
         NMat0=    1 NMatS0=      1 NMatT0=    0 NMatD0=    1 NMtDS0=    0 NMtDT0=    0
 Petite list used in FoFCou.
 Harris En= -390.109891835894    
 JPrj=0 DoOrth=F DoCkMO=F.
 Leave Link  401 at Fri Sep 17 15:25:12 2021, MaxMem=   524288000 cpu:              12.0 elap:              12.3
 (Enter /opt/gaussian/g16_legacy/l502.exe)
 Keep R1 ints in memory in canonical form, NReq=425198025.
 FoFCou: FMM=F IPFlag=           0 FMFlag=           0 FMFlg1=           0
         NFxFlg=           0 DoJE=F BraDBF=F KetDBF=F FulRan=T
         wScrn=  0.000000 ICntrl=       600 IOpCl=  0 I1Cent=           0 NGrid=           0
         NMat0=    1 NMatS0=  28920 NMatT0=    0 NMatD0=    1 NMtDS0=    0 NMtDT0=    0
 Symmetry not used in FoFCou.
 Two-electron integral symmetry not used.
 Closed shell SCF:
 Using DIIS extrapolation, IDIIS=  1040.
 NGot=   524288000 LenX=   105970886 LenY=   105912845
 Requested convergence on RMS density matrix=1.00D-08 within 128 cycles.
 Requested convergence on MAX density matrix=1.00D-06.
 Requested convergence on             energy=1.00D-06.
 No special actions if energy rises.

 Cycle   1  Pass 1  IDiag  1:
 E= -388.533178527223    
 DIIS: error= 5.21D-02 at cycle   1 NSaved=   1.
 NSaved= 1 IEnMin= 1 EnMin= -388.533178527223     IErMin= 1 ErrMin= 5.21D-02
 ErrMax= 5.21D-02  0.00D+00 EMaxC= 1.00D-01 BMatC= 8.07D-01 BMatP= 8.07D-01
 IDIUse=3 WtCom= 4.79D-01 WtEn= 5.21D-01
 Coeff-Com:  0.100D+01
 Coeff-En:   0.100D+01
 Coeff:      0.100D+01
 Gap=     0.508 Goal=   None    Shift=    0.000
 GapD=    0.508 DampG=2.000 DampE=0.500 DampFc=1.0000 IDamp=-1.
 RMSDP=4.00D-03 MaxDP=1.14D-01              OVMax= 1.33D-01

 Cycle   2  Pass 1  IDiag  1:
 E= -389.073871169964     Delta-E=       -0.540692642741 Rises=F Damp=F
 DIIS: error= 1.59D-02 at cycle   2 NSaved=   2.
 NSaved= 2 IEnMin= 2 EnMin= -389.073871169964     IErMin= 2 ErrMin= 1.59D-02
 ErrMax= 1.59D-02  0.00D+00 EMaxC= 1.00D-01 BMatC= 8.66D-02 BMatP= 8.07D-01
 IDIUse=3 WtCom= 8.41D-01 WtEn= 1.59D-01
 Coeff-Com:  0.183D+00 0.817D+00
 Coeff-En:   0.000D+00 0.100D+01
 Coeff:      0.154D+00 0.846D+00
 Gap=     0.549 Goal=   None    Shift=    0.000
 RMSDP=1.63D-03 MaxDP=3.04D-02 DE=-5.41D-01 OVMax= 4.61D-02

 Cycle   3  Pass 1  IDiag  1:
 E= -389.151432458133     Delta-E=       -0.077561288169 Rises=F Damp=F
 DIIS: error= 3.43D-03 at cycle   3 NSaved=   3.
 NSaved= 3 IEnMin= 3 EnMin= -389.151432458133     IErMin= 3 ErrMin= 3.43D-03
 ErrMax= 3.43D-03  0.00D+00 EMaxC= 1.00D-01 BMatC= 3.14D-03 BMatP= 8.66D-02
 IDIUse=3 WtCom= 9.66D-01 WtEn= 3.43D-02
 Coeff-Com: -0.245D-01 0.106D+00 0.919D+00
 Coeff-En:   0.000D+00 0.000D+00 0.100D+01
 Coeff:     -0.236D-01 0.102D+00 0.921D+00
 Gap=     0.499 Goal=   None    Shift=    0.000
 RMSDP=2.59D-04 MaxDP=7.14D-03 DE=-7.76D-02 OVMax= 1.01D-02

 Cycle   4  Pass 1  IDiag  1:
 E= -389.155058128792     Delta-E=       -0.003625670659 Rises=F Damp=F
 DIIS: error= 5.31D-04 at cycle   4 NSaved=   4.
 NSaved= 4 IEnMin= 4 EnMin= -389.155058128792     IErMin= 4 ErrMin= 5.31D-04
 ErrMax= 5.31D-04  0.00D+00 EMaxC= 1.00D-01 BMatC= 9.28D-05 BMatP= 3.14D-03
 IDIUse=3 WtCom= 9.95D-01 WtEn= 5.31D-03
 Coeff-Com: -0.423D-02-0.191D-02 0.948D-01 0.911D+00
 Coeff-En:   0.000D+00 0.000D+00 0.000D+00 0.100D+01
 Coeff:     -0.421D-02-0.190D-02 0.943D-01 0.912D+00
 Gap=     0.499 Goal=   None    Shift=    0.000
 RMSDP=7.39D-05 MaxDP=1.49D-03 DE=-3.63D-03 OVMax= 3.14D-03

 Cycle   5  Pass 1  IDiag  1:
 E= -389.155182403959     Delta-E=       -0.000124275167 Rises=F Damp=F
 DIIS: error= 1.63D-04 at cycle   5 NSaved=   5.
 NSaved= 5 IEnMin= 5 EnMin= -389.155182403959     IErMin= 5 ErrMin= 1.63D-04
 ErrMax= 1.63D-04  0.00D+00 EMaxC= 1.00D-01 BMatC= 1.59D-05 BMatP= 9.28D-05
 IDIUse=3 WtCom= 9.98D-01 WtEn= 1.63D-03
 Coeff-Com:  0.241D-02-0.152D-01-0.102D+00 0.176D+00 0.939D+00
 Coeff-En:   0.000D+00 0.000D+00 0.000D+00 0.000D+00 0.100D+01
 Coeff:      0.241D-02-0.152D-01-0.102D+00 0.175D+00 0.939D+00
 Gap=     0.500 Goal=   None    Shift=    0.000
 RMSDP=3.00D-05 MaxDP=6.55D-04 DE=-1.24D-04 OVMax= 9.22D-04

 Cycle   6  Pass 1  IDiag  1:
 E= -389.155203873559     Delta-E=       -0.000021469600 Rises=F Damp=F
 DIIS: error= 3.57D-05 at cycle   6 NSaved=   6.
 NSaved= 6 IEnMin= 6 EnMin= -389.155203873559     IErMin= 6 ErrMin= 3.57D-05
 ErrMax= 3.57D-05  0.00D+00 EMaxC= 1.00D-01 BMatC= 5.49D-07 BMatP= 1.59D-05
 IDIUse=1 WtCom= 1.00D+00 WtEn= 0.00D+00
 Coeff-Com:  0.720D-03-0.335D-02-0.260D-01-0.433D-02 0.177D+00 0.856D+00
 Coeff:      0.720D-03-0.335D-02-0.260D-01-0.433D-02 0.177D+00 0.856D+00
 Gap=     0.500 Goal=   None    Shift=    0.000
 RMSDP=5.30D-06 MaxDP=1.61D-04 DE=-2.15D-05 OVMax= 3.23D-04

 Cycle   7  Pass 1  IDiag  1:
 E= -389.155204714098     Delta-E=       -0.000000840539 Rises=F Damp=F
 DIIS: error= 1.03D-05 at cycle   7 NSaved=   7.
 NSaved= 7 IEnMin= 7 EnMin= -389.155204714098     IErMin= 7 ErrMin= 1.03D-05
 ErrMax= 1.03D-05  0.00D+00 EMaxC= 1.00D-01 BMatC= 5.45D-08 BMatP= 5.49D-07
 IDIUse=1 WtCom= 1.00D+00 WtEn= 0.00D+00
 Coeff-Com: -0.494D-04 0.464D-03 0.301D-02-0.105D-01-0.468D-01 0.145D+00
 Coeff-Com:  0.909D+00
 Coeff:     -0.494D-04 0.464D-03 0.301D-02-0.105D-01-0.468D-01 0.145D+00
 Coeff:      0.909D+00
 Gap=     0.500 Goal=   None    Shift=    0.000
 RMSDP=1.71D-06 MaxDP=4.10D-05 DE=-8.41D-07 OVMax= 8.40D-05

 Cycle   8  Pass 1  IDiag  1:
 E= -389.155204803009     Delta-E=       -0.000000088912 Rises=F Damp=F
 DIIS: error= 3.51D-06 at cycle   8 NSaved=   8.
 NSaved= 8 IEnMin= 8 EnMin= -389.155204803009     IErMin= 8 ErrMin= 3.51D-06
 ErrMax= 3.51D-06  0.00D+00 EMaxC= 1.00D-01 BMatC= 5.10D-09 BMatP= 5.45D-08
 IDIUse=1 WtCom= 1.00D+00 WtEn= 0.00D+00
 Coeff-Com: -0.581D-04 0.249D-03 0.207D-02 0.315D-02-0.171D-01-0.803D-01
 Coeff-Com: -0.123D+00 0.121D+01
 Coeff:     -0.581D-04 0.249D-03 0.207D-02 0.315D-02-0.171D-01-0.803D-01
 Coeff:     -0.123D+00 0.121D+01
 Gap=     0.500 Goal=   None    Shift=    0.000
 RMSDP=7.85D-07 MaxDP=2.41D-05 DE=-8.89D-08 OVMax= 5.81D-05

 Cycle   9  Pass 1  IDiag  1:
 E= -389.155204818895     Delta-E=       -0.000000015886 Rises=F Damp=F
 DIIS: error= 1.46D-06 at cycle   9 NSaved=   9.
 NSaved= 9 IEnMin= 9 EnMin= -389.155204818895     IErMin= 9 ErrMin= 1.46D-06
 ErrMax= 1.46D-06  0.00D+00 EMaxC= 1.00D-01 BMatC= 7.39D-10 BMatP= 5.10D-09
 IDIUse=1 WtCom= 1.00D+00 WtEn= 0.00D+00
 Coeff-Com:  0.931D-05-0.691D-04-0.481D-03 0.144D-02 0.386D-02 0.121D-03
 Coeff-Com: -0.865D-01-0.120D+00 0.120D+01
 Coeff:      0.931D-05-0.691D-04-0.481D-03 0.144D-02 0.386D-02 0.121D-03
 Coeff:     -0.865D-01-0.120D+00 0.120D+01
 Gap=     0.500 Goal=   None    Shift=    0.000
 RMSDP=2.99D-07 MaxDP=1.24D-05 DE=-1.59D-08 OVMax= 2.71D-05

 Cycle  10  Pass 1  IDiag  1:
 E= -389.155204821306     Delta-E=       -0.000000002410 Rises=F Damp=F
 DIIS: error= 3.97D-07 at cycle  10 NSaved=  10.
 NSaved=10 IEnMin=10 EnMin= -389.155204821306     IErMin=10 ErrMin= 3.97D-07
 ErrMax= 3.97D-07  0.00D+00 EMaxC= 1.00D-01 BMatC= 1.21D-10 BMatP= 7.39D-10
 IDIUse=1 WtCom= 1.00D+00 WtEn= 0.00D+00
 Coeff-Com:  0.951D-05-0.463D-04-0.369D-03-0.135D-03 0.233D-02 0.142D-01
 Coeff-Com:  0.597D-02-0.211D+00 0.143D+00 0.105D+01
 Coeff:      0.951D-05-0.463D-04-0.369D-03-0.135D-03 0.233D-02 0.142D-01
 Coeff:      0.597D-02-0.211D+00 0.143D+00 0.105D+01
 Gap=     0.500 Goal=   None    Shift=    0.000
 RMSDP=1.24D-07 MaxDP=3.06D-06 DE=-2.41D-09 OVMax= 9.87D-06

 Cycle  11  Pass 1  IDiag  1:
 E= -389.155204821617     Delta-E=       -0.000000000312 Rises=F Damp=F
 DIIS: error= 1.55D-07 at cycle  11 NSaved=  11.
 NSaved=11 IEnMin=11 EnMin= -389.155204821617     IErMin=11 ErrMin= 1.55D-07
 ErrMax= 1.55D-07  0.00D+00 EMaxC= 1.00D-01 BMatC= 9.54D-12 BMatP= 1.21D-10
 IDIUse=1 WtCom= 1.00D+00 WtEn= 0.00D+00
 Coeff-Com:  0.392D-06 0.850D-06 0.110D-05-0.149D-03-0.306D-03 0.277D-02
 Coeff-Com:  0.110D-01-0.152D-01-0.107D+00 0.164D+00 0.945D+00
 Coeff:      0.392D-06 0.850D-06 0.110D-05-0.149D-03-0.306D-03 0.277D-02
 Coeff:      0.110D-01-0.152D-01-0.107D+00 0.164D+00 0.945D+00
 Gap=     0.500 Goal=   None    Shift=    0.000
 RMSDP=2.76D-08 MaxDP=1.16D-06 DE=-3.12D-10 OVMax= 2.50D-06

 Cycle  12  Pass 1  IDiag  1:
 E= -389.155204821633     Delta-E=       -0.000000000015 Rises=F Damp=F
 DIIS: error= 3.65D-08 at cycle  12 NSaved=  12.
 NSaved=12 IEnMin=12 EnMin= -389.155204821633     IErMin=12 ErrMin= 3.65D-08
 ErrMax= 3.65D-08  0.00D+00 EMaxC= 1.00D-01 BMatC= 1.17D-12 BMatP= 9.54D-12
 IDIUse=1 WtCom= 1.00D+00 WtEn= 0.00D+00
 Coeff-Com: -0.102D-05 0.547D-05 0.429D-04 0.321D-05-0.343D-03-0.126D-02
 Coeff-Com:  0.367D-03 0.217D-01-0.322D-01-0.113D+00 0.986D-01 0.103D+01
 Coeff:     -0.102D-05 0.547D-05 0.429D-04 0.321D-05-0.343D-03-0.126D-02
 Coeff:      0.367D-03 0.217D-01-0.322D-01-0.113D+00 0.986D-01 0.103D+01
 Gap=     0.500 Goal=   None    Shift=    0.000
 RMSDP=1.18D-08 MaxDP=3.33D-07 DE=-1.55D-11 OVMax= 8.46D-07

 Cycle  13  Pass 1  IDiag  1:
 E= -389.155204821648     Delta-E=       -0.000000000016 Rises=F Damp=F
 DIIS: error= 1.06D-08 at cycle  13 NSaved=  13.
 NSaved=13 IEnMin=13 EnMin= -389.155204821648     IErMin=13 ErrMin= 1.06D-08
 ErrMax= 1.06D-08  0.00D+00 EMaxC= 1.00D-01 BMatC= 5.48D-14 BMatP= 1.17D-12
 IDIUse=1 WtCom= 1.00D+00 WtEn= 0.00D+00
 Coeff-Com: -0.122D-06 0.462D-06 0.389D-05 0.136D-04-0.170D-04-0.298D-03
 Coeff-Com: -0.849D-03 0.352D-02 0.516D-02-0.213D-01-0.612D-01 0.111D+00
 Coeff-Com:  0.964D+00
 Coeff:     -0.122D-06 0.462D-06 0.389D-05 0.136D-04-0.170D-04-0.298D-03
 Coeff:     -0.849D-03 0.352D-02 0.516D-02-0.213D-01-0.612D-01 0.111D+00
 Coeff:      0.964D+00
 Gap=     0.500 Goal=   None    Shift=    0.000
 RMSDP=2.13D-09 MaxDP=7.02D-08 DE=-1.57D-11 OVMax= 1.05D-07

 SCF Done:  E(RHF) =  -389.155204822     A.U. after   13 cycles
            NFock= 13  Conv=0.21D-08     -V/T= 2.0014
 KE= 3.886257894012D+02 PE=-1.937503322435D+03 EE= 6.432875117281D+02
 Leave Link  502 at Fri Sep 17 15:25:43 2021, MaxMem=   524288000 cpu:              30.0 elap:              30.9
 (Enter /opt/gaussian/g16_legacy/l801.exe)
 ExpMin= 1.61D-01 ExpMax= 3.05D+03 ExpMxC= 4.57D+02 IAcc=3 IRadAn=         5 AccDes= 0.00D+00
 HarFok:  IExCor=  205 AccDes= 0.00D+00 IRadAn=         5 IDoV=-2 UseB2=F ITyADJ=14
 ICtDFT= 12500011 ScaDFX=  1.000000  1.000000  1.000000  1.000000
 Largest valence mixing into a core orbital is  1.98D-04
 Largest core mixing into a valence orbital is  3.52D-05
 Range of M.O.s used for correlation:    11   240
 NBasis=   240 NAE=    39 NBE=    39 NFC=    10 NFV=     0
 NROrb=    230 NOA=    29 NOB=    29 NVA=   201 NVB=   201
 Leave Link  801 at Fri Sep 17 15:25:46 2021, MaxMem=   524288000 cpu:               1.6 elap:               2.0
 (Enter /opt/gaussian/g16_legacy/l906.exe)
 Frozen-core derivative calculation, NFC=  10 NFV=   0.
 FulOut=F Deriv=T AODrv=T NAtomX=    28
   MMem=          88  MDisk=          29 MDiskD=          29
  W3Min=     2246400 MinDsk=     2795480 NBas6D=         240
 NBas2D=       29244    NTT=       28920    LW2=     2040000
    MDV=   523626386 MDiskM=       30186 NBas2p=       24383
 Fully direct method using O(ONN) memory.
 IMap=   1   2   3   4   5   6   7   8   9  10  11  12  13  14  15  16  17  18  19  20
 IMap=  21  22  23  24  25  26  27  28  29  30  31  32  33  34  35  36  37  38  39
 JobTyp=1 Pass  1:  I=  11 to  39 NPSUse=  1 ParTrn=F ParDer=F DoDerP=T.
 Spin components of T(2) and E(2):
     alpha-alpha T2 =       0.5715195908D-01 E2=     -0.1638032134D+00
     alpha-beta  T2 =       0.3618179562D+00 E2=     -0.1089339469D+01
     beta-beta   T2 =       0.5715195908D-01 E2=     -0.1638032134D+00
 The integrals were generated   1 times.
 ANorm=    0.1214957561D+01
 E2 =    -0.1416945896D+01 EUMP2 =    -0.39057215071781D+03
 Leave Link  906 at Fri Sep 17 15:29:58 2021, MaxMem=   524288000 cpu:             251.9 elap:             252.5
 (Enter /opt/gaussian/g16_legacy/l1002.exe)
 Minotr:  Closed shell wavefunction.
          Computing MP2/KS-MP2 derivatives.
          Using Z-Vector for PSCF gradient.
          Skipping F1 and S1 gradient terms here.
          IDoAtm=1111111111111111111111111111
          Frozen-core window.
          Direct CPHF calculation.
          Differentiating once with respect to electric field.
                with respect to dipole field.
          Differentiating once with respect to nuclear coordinates.
          Requested convergence is 1.0D-10 RMS, and 1.0D-09 maximum.
          NewPWx=F KeepS1=T KeepF1=T KeepIn=T MapXYZ=F SortEE=F KeepMc=T.
 Keep R1 ints in memory in canonical form, NReq=425201067.
 FoFCou: FMM=F IPFlag=           0 FMFlag=           0 FMFlg1=           0
         NFxFlg=           0 DoJE=F BraDBF=F KetDBF=F FulRan=T
         wScrn=  0.000000 ICntrl=       600 IOpCl=  0 I1Cent=           0 NGrid=           0
         NMat0=    1 NMatS0=  28920 NMatT0=    0 NMatD0=    1 NMtDS0=    0 NMtDT0=    0
 Symmetry not used in FoFCou.
 Two-electron integral symmetry not used.
          MDV=     524288000 using IRadAn=       5.
          Solving linear equations separately, MaxMat=       0.
          There are     1 degrees of freedom in the 1st order CPHF.  IDoFFX=0 NUNeed=     1.
 LinEq1:  Iter=  0 NonCon=     1 RMS=2.55D-03 Max=3.76D-02 NDo=     1
 AX will form     1 AO Fock derivatives at one time.
 LinEq1:  Iter=  1 NonCon=     1 RMS=6.90D-04 Max=9.74D-03 NDo=     1
 LinEq1:  Iter=  2 NonCon=     1 RMS=1.61D-04 Max=4.14D-03 NDo=     1
 LinEq1:  Iter=  3 NonCon=     1 RMS=4.31D-05 Max=5.08D-04 NDo=     1
 LinEq1:  Iter=  4 NonCon=     1 RMS=1.99D-05 Max=8.55D-04 NDo=     1
 LinEq1:  Iter=  5 NonCon=     1 RMS=5.06D-06 Max=8.27D-05 NDo=     1
 LinEq1:  Iter=  6 NonCon=     1 RMS=1.63D-06 Max=2.68D-05 NDo=     1
 LinEq1:  Iter=  7 NonCon=     1 RMS=4.13D-07 Max=4.19D-06 NDo=     1
 LinEq1:  Iter=  8 NonCon=     1 RMS=1.01D-07 Max=1.86D-06 NDo=     1
 LinEq1:  Iter=  9 NonCon=     1 RMS=2.33D-08 Max=6.32D-07 NDo=     1
 LinEq1:  Iter= 10 NonCon=     1 RMS=6.41D-09 Max=1.62D-07 NDo=     1
 LinEq1:  Iter= 11 NonCon=     1 RMS=1.89D-09 Max=3.62D-08 NDo=     1
 LinEq1:  Iter= 12 NonCon=     1 RMS=4.07D-10 Max=5.81D-09 NDo=     1
 LinEq1:  Iter= 13 NonCon=     1 RMS=1.00D-10 Max=1.56D-09 NDo=     1
 LinEq1:  Iter= 14 NonCon=     0 RMS=3.18D-11 Max=8.33D-10 NDo=     1
 Linear equations converged to 1.000D-10 1.000D-09 after    14 iterations.
 End of Minotr F.D. properties file   721 does not exist.
 End of Minotr F.D. properties file   722 does not exist.
 End of Minotr F.D. properties file   788 does not exist.
 Leave Link 1002 at Fri Sep 17 15:30:36 2021, MaxMem=   524288000 cpu:              37.6 elap:              37.9
 (Enter /opt/gaussian/g16_legacy/l601.exe)
 Copying SCF densities to generalized density rwf, IOpCl= 0 IROHF=0.

 **********************************************************************

            Population analysis using the SCF density.

 **********************************************************************

 Orbital symmetries:
       Occupied  (A) (A) (A) (A) (A) (A) (A) (A) (A) (A) (A) (A)
                 (A) (A) (A) (A) (A) (A) (A) (A) (A) (A) (A) (A)
                 (A) (A) (A) (A) (A) (A) (A) (A) (A) (A) (A) (A)
                 (A) (A) (A)
       Virtual   (A) (A) (A) (A) (A) (A) (A) (A) (A) (A) (A) (A)
                 (A) (A) (A) (A) (A) (A) (A) (A) (A) (A) (A) (A)
                 (A) (A) (A) (A) (A) (A) (A) (A) (A) (A) (A) (A)
                 (A) (A) (A) (A) (A) (A) (A) (A) (A) (A) (A) (A)
                 (A) (A) (A) (A) (A) (A) (A) (A) (A) (A) (A) (A)
                 (A) (A) (A) (A) (A) (A) (A) (A) (A) (A) (A) (A)
                 (A) (A) (A) (A) (A) (A) (A) (A) (A) (A) (A) (A)
                 (A) (A) (A) (A) (A) (A) (A) (A) (A) (A) (A) (A)
                 (A) (A) (A) (A) (A) (A) (A) (A) (A) (A) (A) (A)
                 (A) (A) (A) (A) (A) (A) (A) (A) (A) (A) (A) (A)
                 (A) (A) (A) (A) (A) (A) (A) (A) (A) (A) (A) (A)
                 (A) (A) (A) (A) (A) (A) (A) (A) (A) (A) (A) (A)
                 (A) (A) (A) (A) (A) (A) (A) (A) (A) (A) (A) (A)
                 (A) (A) (A) (A) (A) (A) (A) (A) (A) (A) (A) (A)
                 (A) (A) (A) (A) (A) (A) (A) (A) (A) (A) (A) (A)
                 (A) (A) (A) (A) (A) (A) (A) (A) (A) (A) (A) (A)
                 (A) (A) (A) (A) (A) (A) (A) (A) (A)
 The electronic state is 1-A.
 Alpha  occ. eigenvalues --  -11.23059 -11.22506 -11.22000 -11.21921 -11.21884
 Alpha  occ. eigenvalues --  -11.21651 -11.21553 -11.21484 -11.21457 -11.21438
 Alpha  occ. eigenvalues --   -1.10623  -1.08327  -1.01911  -0.98014  -0.93645
 Alpha  occ. eigenvalues --   -0.91775  -0.86754  -0.82685  -0.70598  -0.69342
 Alpha  occ. eigenvalues --   -0.64585  -0.61545  -0.60102  -0.59029  -0.58089
 Alpha  occ. eigenvalues --   -0.56804  -0.55368  -0.55150  -0.53547  -0.51980
 Alpha  occ. eigenvalues --   -0.51715  -0.51319  -0.50592  -0.49229  -0.48276
 Alpha  occ. eigenvalues --   -0.46016  -0.44272  -0.33355  -0.31524
 Alpha virt. eigenvalues --    0.18455   0.19493   0.22038   0.24453   0.25182
 Alpha virt. eigenvalues --    0.27141   0.28394   0.28931   0.30249   0.30504
 Alpha virt. eigenvalues --    0.31238   0.32117   0.33135   0.33436   0.34031
 Alpha virt. eigenvalues --    0.35676   0.35774   0.36970   0.38998   0.40648
 Alpha virt. eigenvalues --    0.41064   0.42595   0.43320   0.44191   0.45150
 Alpha virt. eigenvalues --    0.51684   0.54045   0.61171   0.62446   0.70138
 Alpha virt. eigenvalues --    0.71101   0.71888   0.74279   0.76417   0.76617
 Alpha virt. eigenvalues --    0.76877   0.78795   0.79454   0.81139   0.82036
 Alpha virt. eigenvalues --    0.83812   0.85656   0.88079   0.91266   0.92026
 Alpha virt. eigenvalues --    0.92895   0.95178   0.97057   0.98263   0.99207
 Alpha virt. eigenvalues --    0.99749   1.00203   1.02303   1.03926   1.06183
 Alpha virt. eigenvalues --    1.07863   1.08639   1.08809   1.11198   1.12388
 Alpha virt. eigenvalues --    1.12561   1.13430   1.14583   1.14927   1.15817
 Alpha virt. eigenvalues --    1.16164   1.16403   1.18222   1.18704   1.20092
 Alpha virt. eigenvalues --    1.20660   1.22070   1.22852   1.25018   1.27540
 Alpha virt. eigenvalues --    1.34169   1.40671   1.41849   1.43739   1.45169
 Alpha virt. eigenvalues --    1.47559   1.53476   1.56255   1.56979   1.58248
 Alpha virt. eigenvalues --    1.59850   1.62721   1.65798   1.69519   1.70788
 Alpha virt. eigenvalues --    1.75330   1.82526   1.92038   1.92194   1.95503
 Alpha virt. eigenvalues --    1.98630   2.01128   2.02851   2.04185   2.08703
 Alpha virt. eigenvalues --    2.09242   2.11121   2.11377   2.13101   2.14508
 Alpha virt. eigenvalues --    2.15426   2.17688   2.19723   2.23578   2.27383
 Alpha virt. eigenvalues --    2.28337   2.29994   2.32200   2.34975   2.35566
 Alpha virt. eigenvalues --    2.35644   2.35784   2.39324   2.39847   2.40349
 Alpha virt. eigenvalues --    2.41282   2.41825   2.43037   2.45157   2.45385
 Alpha virt. eigenvalues --    2.47032   2.48343   2.49335   2.50339   2.54523
 Alpha virt. eigenvalues --    2.56586   2.57721   2.61274   2.62183   2.64354
 Alpha virt. eigenvalues --    2.66339   2.67157   2.72034   2.72995   2.73743
 Alpha virt. eigenvalues --    2.75717   2.77700   2.81092   2.82802   2.85161
 Alpha virt. eigenvalues --    2.87728   2.89153   2.91916   2.93443   2.94437
 Alpha virt. eigenvalues --    2.97092   2.99034   3.01163   3.02597   3.05098
 Alpha virt. eigenvalues --    3.05822   3.06634   3.08506   3.13014   3.15938
 Alpha virt. eigenvalues --    3.17132   3.18162   3.19612   3.20682   3.21264
 Alpha virt. eigenvalues --    3.23189   3.24417   3.26465   3.27241   3.36664
 Alpha virt. eigenvalues --    3.39070   3.44603   3.45619   3.55543   3.57294
 Alpha virt. eigenvalues --    3.58695   3.61049   3.66894   3.73960   3.78198
 Alpha virt. eigenvalues --    3.78867   3.80511   3.81320   3.82331   3.82836
 Alpha virt. eigenvalues --    3.84210   3.85750   3.87653   3.89507   3.91169
 Alpha virt. eigenvalues --    3.95900   4.59095   4.62633   4.74428   4.82816
 Alpha virt. eigenvalues --    4.88837   4.92667   4.93352   5.07551   5.10288
 Alpha virt. eigenvalues --    5.16868
          Condensed to atoms (all electrons):
               1          2          3          4          5          6
     1  C    5.001784   0.413512   0.412353   0.340287  -0.058744  -0.000532
     2  H    0.413512   0.588452  -0.030218  -0.045054  -0.004688  -0.000276
     3  H    0.412353  -0.030218   0.571677  -0.040529   0.003237  -0.000030
     4  C    0.340287  -0.045054  -0.040529   4.955136   0.349329  -0.045820
     5  C   -0.058744  -0.004688   0.003237   0.349329   4.896447   0.400280
     6  H   -0.000532  -0.000276  -0.000030  -0.045820   0.400280   0.594780
     7  H    0.003676   0.000081  -0.000103  -0.041411   0.406177  -0.028076
     8  H   -0.003553   0.002570  -0.000016  -0.043070   0.397386  -0.035010
     9  C   -0.044042   0.001918  -0.002232   0.698835  -0.045930  -0.001034
    10  H    0.003079  -0.000114   0.000060  -0.036532  -0.006480   0.000123
    11  C   -0.007062   0.000138  -0.002135  -0.050681   0.003424  -0.000100
    12  H   -0.001829   0.000004  -0.001334  -0.000419   0.000093   0.000000
    13  H    0.000227   0.000028   0.000172  -0.001412  -0.000116  -0.000005
    14  H    0.000232  -0.000010  -0.000034   0.000593  -0.000100   0.000015
    15  C    0.000597  -0.000016   0.000160  -0.000017  -0.000000  -0.000000
    16  H   -0.000041   0.000000   0.000014   0.000001  -0.000000   0.000000
    17  H   -0.000053  -0.000012  -0.000052  -0.000027  -0.000000   0.000000
    18  H    0.000077  -0.000001  -0.000076  -0.000002   0.000000   0.000000
    19  C   -0.003608   0.000615   0.001046   0.000006  -0.000002   0.000000
    20  C   -0.000101  -0.000000  -0.000042   0.000002  -0.000000  -0.000000
    21  H   -0.000003   0.000002  -0.000002   0.000000  -0.000000  -0.000000
    22  H    0.000022  -0.000001  -0.000005  -0.000000   0.000000   0.000000
    23  H   -0.000004   0.000000   0.000001   0.000000  -0.000000   0.000000
    24  C   -0.063072  -0.000608  -0.000808   0.006131  -0.000158  -0.000086
    25  H    0.000004   0.001003   0.000213  -0.000155   0.000010   0.000012
    26  C    0.326235  -0.044594  -0.039857  -0.057366  -0.000187   0.000811
    27  H   -0.040290   0.004202  -0.002144  -0.001437   0.000317  -0.000009
    28  H   -0.045132  -0.002602   0.004290  -0.001852  -0.000392  -0.000187
               7          8          9         10         11         12
     1  C    0.003676  -0.003553  -0.044042   0.003079  -0.007062  -0.001829
     2  H    0.000081   0.002570   0.001918  -0.000114   0.000138   0.000004
     3  H   -0.000103  -0.000016  -0.002232   0.000060  -0.002135  -0.001334
     4  C   -0.041411  -0.043070   0.698835  -0.036532  -0.050681  -0.000419
     5  C    0.406177   0.397386  -0.045930  -0.006480   0.003424   0.000093
     6  H   -0.028076  -0.035010  -0.001034   0.000123  -0.000100   0.000000
     7  H    0.571034  -0.027609  -0.002738   0.002223   0.000137   0.000004
     8  H   -0.027609   0.593604  -0.000426   0.000248  -0.000114  -0.000001
     9  C   -0.002738  -0.000426   4.939946   0.404874   0.337717  -0.041945
    10  H    0.002223   0.000248   0.404874   0.559364  -0.043643   0.003316
    11  C    0.000137  -0.000114   0.337717  -0.043643   4.906220   0.408018
    12  H    0.000004  -0.000001  -0.041945   0.003316   0.408018   0.573924
    13  H   -0.000004   0.000021  -0.044351  -0.000222   0.400031  -0.026860
    14  H   -0.000009  -0.000004  -0.042845  -0.002647   0.403012  -0.030017
    15  C   -0.000000  -0.000000   0.000010  -0.000000  -0.000097   0.000009
    16  H    0.000000   0.000000   0.000000   0.000000   0.000002  -0.000006
    17  H    0.000000  -0.000000  -0.000032   0.000000   0.000040   0.000571
    18  H   -0.000000  -0.000000   0.000000  -0.000000  -0.000003   0.000034
    19  C    0.000000   0.000000   0.000001   0.000000   0.000007  -0.000013
    20  C    0.000000  -0.000000  -0.000000   0.000000  -0.000000   0.000000
    21  H    0.000000  -0.000000  -0.000000   0.000000   0.000000  -0.000000
    22  H   -0.000000  -0.000000  -0.000000  -0.000000   0.000000  -0.000000
    23  H    0.000000   0.000000   0.000000   0.000000  -0.000000  -0.000000
    24  C    0.000003   0.000001   0.000070   0.000002  -0.000032   0.000003
    25  H   -0.000000  -0.000002  -0.000002  -0.000000   0.000000  -0.000001
    26  C   -0.000097   0.000027  -0.004366  -0.000116   0.000690  -0.000212
    27  H   -0.000010   0.000012   0.001215  -0.000044   0.000070  -0.000251
    28  H   -0.000025   0.000093   0.000514   0.000004  -0.000030  -0.000008
              13         14         15         16         17         18
     1  C    0.000227   0.000232   0.000597  -0.000041  -0.000053   0.000077
     2  H    0.000028  -0.000010  -0.000016   0.000000  -0.000012  -0.000001
     3  H    0.000172  -0.000034   0.000160   0.000014  -0.000052  -0.000076
     4  C   -0.001412   0.000593  -0.000017   0.000001  -0.000027  -0.000002
     5  C   -0.000116  -0.000100  -0.000000  -0.000000  -0.000000   0.000000
     6  H   -0.000005   0.000015  -0.000000   0.000000   0.000000   0.000000
     7  H   -0.000004  -0.000009  -0.000000   0.000000   0.000000  -0.000000
     8  H    0.000021  -0.000004  -0.000000   0.000000  -0.000000  -0.000000
     9  C   -0.044351  -0.042845   0.000010   0.000000  -0.000032   0.000000
    10  H   -0.000222  -0.002647  -0.000000   0.000000   0.000000  -0.000000
    11  C    0.400031   0.403012  -0.000097   0.000002   0.000040  -0.000003
    12  H   -0.026860  -0.030017   0.000009  -0.000006   0.000571   0.000034
    13  H    0.584251  -0.033281   0.000002   0.000000  -0.000008  -0.000000
    14  H   -0.033281   0.586794  -0.000004  -0.000000   0.000042   0.000000
    15  C    0.000002  -0.000004   4.909258   0.398270   0.406144   0.402434
    16  H    0.000000  -0.000000   0.398270   0.582514  -0.026270  -0.033097
    17  H   -0.000008   0.000042   0.406144  -0.026270   0.568198  -0.030017
    18  H   -0.000000   0.000000   0.402434  -0.033097  -0.030017   0.586232
    19  C   -0.000000   0.000000   0.348390  -0.043821  -0.037060  -0.043932
    20  C    0.000000  -0.000000  -0.065380  -0.001684   0.003678  -0.003431
    21  H   -0.000000  -0.000000   0.003696  -0.000079  -0.000108   0.000010
    22  H   -0.000000   0.000000  -0.002140  -0.000371  -0.000072   0.002847
    23  H    0.000000  -0.000000  -0.001105   0.002553  -0.000023  -0.000507
    24  C    0.000002  -0.000004  -0.043325  -0.000842  -0.002870   0.000448
    25  H    0.000000   0.000000   0.003365  -0.000126   0.000059  -0.000110
    26  C   -0.000050   0.000091  -0.007535   0.000188  -0.001946   0.000286
    27  H    0.000023  -0.000079  -0.002065   0.000056  -0.001170  -0.000043
    28  H   -0.000000   0.000000   0.000169   0.000032   0.000031  -0.000012
              19         20         21         22         23         24
     1  C   -0.003608  -0.000101  -0.000003   0.000022  -0.000004  -0.063072
     2  H    0.000615  -0.000000   0.000002  -0.000001   0.000000  -0.000608
     3  H    0.001046  -0.000042  -0.000002  -0.000005   0.000001  -0.000808
     4  C    0.000006   0.000002   0.000000  -0.000000   0.000000   0.006131
     5  C   -0.000002  -0.000000  -0.000000   0.000000  -0.000000  -0.000158
     6  H    0.000000  -0.000000  -0.000000   0.000000   0.000000  -0.000086
     7  H    0.000000   0.000000   0.000000  -0.000000   0.000000   0.000003
     8  H    0.000000  -0.000000  -0.000000  -0.000000   0.000000   0.000001
     9  C    0.000001  -0.000000  -0.000000  -0.000000   0.000000   0.000070
    10  H    0.000000   0.000000   0.000000  -0.000000   0.000000   0.000002
    11  C    0.000007  -0.000000   0.000000   0.000000  -0.000000  -0.000032
    12  H   -0.000013   0.000000  -0.000000  -0.000000  -0.000000   0.000003
    13  H   -0.000000   0.000000  -0.000000  -0.000000   0.000000   0.000002
    14  H    0.000000  -0.000000  -0.000000   0.000000  -0.000000  -0.000004
    15  C    0.348390  -0.065380   0.003696  -0.002140  -0.001105  -0.043325
    16  H   -0.043821  -0.001684  -0.000079  -0.000371   0.002553  -0.000842
    17  H   -0.037060   0.003678  -0.000108  -0.000072  -0.000023  -0.002870
    18  H   -0.043932  -0.003431   0.000010   0.002847  -0.000507   0.000448
    19  C    4.918197   0.352278  -0.040400  -0.044304  -0.045765   0.698185
    20  C    0.352278   4.903256   0.405425   0.396988   0.399259  -0.044861
    21  H   -0.040400   0.405425   0.568029  -0.027368  -0.027556  -0.002386
    22  H   -0.044304   0.396988  -0.027368   0.594308  -0.034906  -0.000547
    23  H   -0.045765   0.399259  -0.027556  -0.034906   0.593087  -0.001136
    24  C    0.698185  -0.044861  -0.002386  -0.000547  -0.001136   4.961533
    25  H   -0.036140  -0.006749   0.002177   0.000235   0.000150   0.402007
    26  C   -0.048265   0.003152   0.000146  -0.000086  -0.000124   0.339919
    27  H    0.000824   0.000070   0.000006  -0.000004   0.000004  -0.043809
    28  H    0.000914  -0.000102  -0.000011  -0.000002   0.000012  -0.043353
              25         26         27         28
     1  C    0.000004   0.326235  -0.040290  -0.045132
     2  H    0.001003  -0.044594   0.004202  -0.002602
     3  H    0.000213  -0.039857  -0.002144   0.004290
     4  C   -0.000155  -0.057366  -0.001437  -0.001852
     5  C    0.000010  -0.000187   0.000317  -0.000392
     6  H    0.000012   0.000811  -0.000009  -0.000187
     7  H   -0.000000  -0.000097  -0.000010  -0.000025
     8  H   -0.000002   0.000027   0.000012   0.000093
     9  C   -0.000002  -0.004366   0.001215   0.000514
    10  H   -0.000000  -0.000116  -0.000044   0.000004
    11  C    0.000000   0.000690   0.000070  -0.000030
    12  H   -0.000001  -0.000212  -0.000251  -0.000008
    13  H    0.000000  -0.000050   0.000023  -0.000000
    14  H    0.000000   0.000091  -0.000079   0.000000
    15  C    0.003365  -0.007535  -0.002065   0.000169
    16  H   -0.000126   0.000188   0.000056   0.000032
    17  H    0.000059  -0.001946  -0.001170   0.000031
    18  H   -0.000110   0.000286  -0.000043  -0.000012
    19  C   -0.036140  -0.048265   0.000824   0.000914
    20  C   -0.006749   0.003152   0.000070  -0.000102
    21  H    0.002177   0.000146   0.000006  -0.000011
    22  H    0.000235  -0.000086  -0.000004  -0.000002
    23  H    0.000150  -0.000124   0.000004   0.000012
    24  C    0.402007   0.339919  -0.043809  -0.043353
    25  H    0.558533  -0.041271   0.003230  -0.003486
    26  C   -0.041271   4.982313   0.414876   0.413776
    27  H    0.003230   0.414876   0.571208  -0.029591
    28  H   -0.003486   0.413776  -0.029591   0.588474
 Mulliken charges:
               1
     1  C   -0.234017
     2  H    0.115670
     3  H    0.126394
     4  C    0.015465
     5  C   -0.339900
     6  H    0.115143
     7  H    0.116746
     8  H    0.115842
     9  C   -0.155158
    10  H    0.116504
    11  C   -0.355608
    12  H    0.116920
    13  H    0.121554
    14  H    0.118255
    15  C   -0.350820
    16  H    0.122709
    17  H    0.120956
    18  H    0.118862
    19  C    0.022847
    20  C   -0.341758
    21  H    0.118421
    22  H    0.115407
    23  H    0.116061
    24  C   -0.160407
    25  H    0.117043
    26  C   -0.236438
    27  H    0.124832
    28  H    0.118475
 Sum of Mulliken charges =  -0.00000
 Mulliken charges with hydrogens summed into heavy atoms:
               1
     1  C    0.008047
     4  C    0.015465
     5  C    0.007831
     9  C   -0.038654
    11  C    0.001120
    15  C    0.011708
    19  C    0.022847
    20  C    0.008131
    24  C   -0.043364
    26  C    0.006869
 Electronic spatial extent (au):  <R**2>=           2423.6598
 Charge=              0.0000 electrons
 Dipole moment (field-independent basis, Debye):
    X=              0.2947    Y=              0.1260    Z=             -0.0058  Tot=              0.3205
 Quadrupole moment (field-independent basis, Debye-Ang):
   XX=            -64.5133   YY=            -63.6026   ZZ=            -67.0544
   XY=              0.6111   XZ=              0.8620   YZ=             -0.4858
 Traceless Quadrupole moment (field-independent basis, Debye-Ang):
   XX=              0.5435   YY=              1.4541   ZZ=             -1.9976
   XY=              0.6111   XZ=              0.8620   YZ=             -0.4858
 Octapole moment (field-independent basis, Debye-Ang**2):
  XXX=              1.3636  YYY=             -2.7199  ZZZ=              0.1850  XYY=             -0.5737
  XXY=              4.5353  XXZ=             -2.6517  XZZ=              1.5757  YZZ=              1.2274
  YYZ=              1.3716  XYZ=             -0.7519
 Hexadecapole moment (field-independent basis, Debye-Ang**3):
 XXXX=          -2492.3360 YYYY=           -696.1044 ZZZZ=           -174.8266 XXXY=             -2.3316
 XXXZ=             11.9246 YYYX=             -9.3609 YYYZ=             -3.0538 ZZZX=             -0.8385
 ZZZY=             -0.0658 XXYY=           -530.4701 XXZZ=           -456.3195 YYZZ=           -139.1705
 XXYZ=             -4.2472 YYXZ=              3.1939 ZZXY=              4.7000
 N-N= 5.164348164840D+02 E-N=-1.937503322546D+03  KE= 3.886257894012D+02
 No NMR shielding tensors so no spin-rotation constants.
 Leave Link  601 at Fri Sep 17 15:30:36 2021, MaxMem=   524288000 cpu:               0.3 elap:               0.3
 (Enter /opt/gaussian/g16_legacy/l701.exe)
 ... and contract with generalized density number  2.
 Compute integral first derivatives.
 Leave Link  701 at Fri Sep 17 15:30:37 2021, MaxMem=   524288000 cpu:               0.3 elap:               0.3
 (Enter /opt/gaussian/g16_legacy/l702.exe)
 L702 exits ... SP integral derivatives will be done elsewhere.
 Leave Link  702 at Fri Sep 17 15:30:37 2021, MaxMem=   524288000 cpu:               0.1 elap:               0.1
 (Enter /opt/gaussian/g16_legacy/l703.exe)
 Integral derivatives from FoFJK, PRISM(SPDF).
 Compute integral first derivatives, UseDBF=F ICtDFT=           0.
 Calling FoFJK, ICntrl=  10002127 FMM=F ISym2X=0 I1Cent= 0 IOpClX= 0 NMat=1 NMatS=1 NMatT=0.
 FoFJK:  IHMeth= 1 ICntrl=10002127 DoSepK=F KAlg= 0 I1Cent=           0 FoldK=F
 IRaf=         0 NMat=       1 IRICut=       1 DoRegI=T DoRafI=F ISym2E= 0 IDoP0=0 IntGTp=1.
 FoFCou: FMM=F IPFlag=           0 FMFlag=      100000 FMFlg1=         800
         NFxFlg=           0 DoJE=F BraDBF=F KetDBF=F FulRan=T
         wScrn=  0.000000 ICntrl=  10002127 IOpCl=  0 I1Cent=           0 NGrid=           0
         NMat0=    1 NMatS0=      1 NMatT0=    0 NMatD0=    1 NMtDS0=    0 NMtDT0=    0
 Symmetry not used in FoFCou.
 Leave Link  703 at Fri Sep 17 15:31:12 2021, MaxMem=   524288000 cpu:              34.8 elap:              34.8
 (Enter /opt/gaussian/g16_legacy/l716.exe)
 Dipole        = 9.10450264D-02 6.68578828D-02-4.74078321D-03
 ***** Axes restored to original set *****
 -------------------------------------------------------------------
 Center     Atomic                   Forces (Hartrees/Bohr)
 Number     Number              X              Y              Z
 -------------------------------------------------------------------
      1        6           0.008410775   -0.003164484   -0.003178950
      2        1          -0.000785814    0.003042601   -0.002078316
      3        1          -0.001483434    0.004372222   -0.000718730
      4        6           0.004783657   -0.002782581    0.003302625
      5        6           0.002637903    0.001563912   -0.000951093
      6        1           0.001050186   -0.002093747    0.002461782
      7        1          -0.003529812   -0.001861892   -0.000949420
      8        1          -0.001912216    0.002697473   -0.000592559
      9        6          -0.002590632    0.002658708    0.000935890
     10        1          -0.002456874    0.000325034    0.002554071
     11        6          -0.001712399   -0.001250618   -0.001799403
     12        1           0.002862082    0.000680636    0.001653111
     13        1          -0.001743682    0.000932281   -0.002798698
     14        1           0.000604549   -0.003239465    0.000983907
     15        6           0.004108604    0.001378358   -0.001529042
     16        1           0.000694830   -0.003005774   -0.000580322
     17        1          -0.002670316    0.000568137    0.002167722
     18        1          -0.002164443    0.002991004    0.000290113
     19        6           0.001003735   -0.001911399    0.004852380
     20        6          -0.000000460   -0.000095879    0.003397431
     21        1           0.002135142    0.000576204   -0.003751417
     22        1          -0.002350856    0.002389873   -0.001097370
     23        1           0.000760467   -0.003290733   -0.000121118
     24        6           0.000328072    0.005224165   -0.000471069
     25        1          -0.001468556   -0.001841475   -0.002506627
     26        6          -0.007858413    0.000868593   -0.000683342
     27        1           0.001095001   -0.003323210    0.001976781
     28        1           0.002252902   -0.002407943   -0.000768336
 -------------------------------------------------------------------
 Cartesian Forces:  Max     0.008410775 RMS     0.002577078
 Leave Link  716 at Fri Sep 17 15:31:12 2021, MaxMem=   524288000 cpu:               0.1 elap:               0.1
 (Enter /opt/gaussian/g16_legacy/l103.exe)

 GradGradGradGradGradGradGradGradGradGradGradGradGradGradGradGradGradGrad
 Berny optimization.
 FormGI is forming the generalized inverse of G from B-inverse, IUseBI=4.
 Internal  Forces:  Max     0.004874817 RMS     0.001919040
 Search for a local minimum.
 Step number   1 out of a maximum of  138
 All quantities printed in internal units (Hartrees-Bohrs-Radians)
 RMS Force = .19190D-02 SwitMx=.10000D-02 MixMth= 1
 Mixed Optimization -- RFO/linear search
 Second derivative matrix not updated -- first step.
 ITU=  0
     Eigenvalues ---    0.00342   0.00569   0.00671   0.00680   0.00692
     Eigenvalues ---    0.00714   0.00819   0.01218   0.01287   0.01569
     Eigenvalues ---    0.01641   0.02779   0.02785   0.04018   0.04138
     Eigenvalues ---    0.05349   0.05399   0.06978   0.07035   0.07091
     Eigenvalues ---    0.07093   0.07269   0.07301   0.07347   0.07504
     Eigenvalues ---    0.09276   0.09360   0.12766   0.12842   0.15999
     Eigenvalues ---    0.15999   0.16000   0.16000   0.16000   0.16000
     Eigenvalues ---    0.16000   0.16000   0.16000   0.16000   0.16000
     Eigenvalues ---    0.16000   0.16000   0.16000   0.21859   0.21866
     Eigenvalues ---    0.22000   0.22000   0.24994   0.24997   0.24998
     Eigenvalues ---    0.24999   0.29237   0.30862   0.31637   0.31709
     Eigenvalues ---    0.31799   0.31972   0.32801   0.33876   0.33976
     Eigenvalues ---    0.34064   0.34186   0.34222   0.34227   0.34240
     Eigenvalues ---    0.34248   0.34249   0.34257   0.34265   0.34266
     Eigenvalues ---    0.34291   0.34335   0.34543   0.34551   0.34792
     Eigenvalues ---    0.34852   0.55482   0.55582
 RFO step:  Lambda=-2.96112374D-03 EMin= 3.42309972D-03
 Linear search not attempted -- first point.
 Iteration  1 RMS(Cart)=  0.03968461 RMS(Int)=  0.00072296
 Iteration  2 RMS(Cart)=  0.00093475 RMS(Int)=  0.00016631
 Iteration  3 RMS(Cart)=  0.00000043 RMS(Int)=  0.00016631
 ITry= 1 IFail=0 DXMaxC= 1.77D-01 DCOld= 1.00D+10 DXMaxT= 3.00D-01 DXLimC= 3.00D+00 Rises=F
 Variable       Old X    -DE/DX   Delta X   Delta X   Delta X     New X
                                 (Linear)    (Quad)   (Total)
    R1        2.07540  -0.00273   0.00000  -0.00799  -0.00799   2.06741
    R2        2.07222  -0.00331   0.00000  -0.00963  -0.00963   2.06259
    R3        2.86277  -0.00357   0.00000  -0.01146  -0.01146   2.85131
    R4        2.89511   0.00172   0.00000   0.00581   0.00581   2.90092
    R5        2.84813  -0.00043   0.00000  -0.00136  -0.00136   2.84678
    R6        2.54706  -0.00404   0.00000  -0.00724  -0.00724   2.53982
    R7        2.06841  -0.00182   0.00000  -0.00526  -0.00526   2.06315
    R8        2.06957  -0.00371   0.00000  -0.01075  -0.01075   2.05883
    R9        2.06899  -0.00212   0.00000  -0.00614  -0.00614   2.06285
   R10        2.05916  -0.00219   0.00000  -0.00624  -0.00624   2.05293
   R11        2.82703   0.00313   0.00000   0.00944   0.00944   2.83647
   R12        2.06410  -0.00292   0.00000  -0.00837  -0.00837   2.05573
   R13        2.06768  -0.00157   0.00000  -0.00454  -0.00454   2.06314
   R14        2.06886  -0.00257   0.00000  -0.00745  -0.00745   2.06141
   R15        2.06884  -0.00186   0.00000  -0.00539  -0.00539   2.06345
   R16        2.06423  -0.00286   0.00000  -0.00822  -0.00822   2.05602
   R17        2.07018  -0.00269   0.00000  -0.00780  -0.00780   2.06238
   R18        2.84195  -0.00048   0.00000  -0.00148  -0.00148   2.84047
   R19        2.84680  -0.00076   0.00000  -0.00238  -0.00238   2.84442
   R20        2.54618  -0.00321   0.00000  -0.00575  -0.00575   2.54044
   R21        2.06948  -0.00397   0.00000  -0.01149  -0.01149   2.05799
   R22        2.06914  -0.00199   0.00000  -0.00577  -0.00577   2.06336
   R23        2.06927  -0.00204   0.00000  -0.00591  -0.00591   2.06336
   R24        2.06015  -0.00201   0.00000  -0.00573  -0.00573   2.05442
   R25        2.84513  -0.00152   0.00000  -0.00475  -0.00475   2.84038
   R26        2.06911  -0.00276   0.00000  -0.00799  -0.00799   2.06112
   R27        2.07371  -0.00236   0.00000  -0.00688  -0.00688   2.06683
    A1        1.83009   0.00206   0.00000   0.02236   0.02219   1.85228
    A2        1.90261  -0.00069   0.00000  -0.00270  -0.00270   1.89991
    A3        1.92010  -0.00195   0.00000  -0.01727  -0.01730   1.90279
    A4        1.93008   0.00043   0.00000   0.00930   0.00934   1.93942
    A5        1.91833  -0.00277   0.00000  -0.02018  -0.02022   1.89811
    A6        1.95830   0.00284   0.00000   0.00916   0.00920   1.96750
    A7        2.00831   0.00237   0.00000   0.00968   0.00911   2.01742
    A8        2.17065  -0.00487   0.00000  -0.01891  -0.01944   2.15121
    A9        2.10405   0.00252   0.00000   0.01033   0.00976   2.11380
   A10        1.92798   0.00229   0.00000   0.01223   0.01225   1.94023
   A11        1.95925  -0.00262   0.00000  -0.01308  -0.01305   1.94621
   A12        1.92482   0.00166   0.00000   0.00900   0.00902   1.93384
   A13        1.87703   0.00054   0.00000   0.00560   0.00563   1.88267
   A14        1.89500  -0.00308   0.00000  -0.02475  -0.02475   1.87025
   A15        1.87759   0.00109   0.00000   0.01017   0.01020   1.88779
   A16        2.06965  -0.00194   0.00000  -0.01338  -0.01340   2.05625
   A17        2.22516  -0.00188   0.00000  -0.00841  -0.00843   2.21674
   A18        1.98823   0.00382   0.00000   0.02196   0.02194   2.01018
   A19        1.98123  -0.00299   0.00000  -0.01840  -0.01831   1.96292
   A20        1.91737   0.00393   0.00000   0.02318   0.02315   1.94051
   A21        1.91006   0.00238   0.00000   0.01558   0.01553   1.92559
   A22        1.89277  -0.00094   0.00000  -0.00756  -0.00746   1.88531
   A23        1.87265   0.00053   0.00000   0.00496   0.00503   1.87767
   A24        1.88713  -0.00309   0.00000  -0.01884  -0.01901   1.86812
   A25        1.88448   0.00023   0.00000   0.00322   0.00325   1.88773
   A26        1.89066  -0.00240   0.00000  -0.02162  -0.02160   1.86907
   A27        1.92167   0.00230   0.00000   0.01164   0.01167   1.93334
   A28        1.86361   0.00201   0.00000   0.01703   0.01705   1.88066
   A29        1.97972  -0.00222   0.00000  -0.01019  -0.01017   1.96955
   A30        1.92079   0.00000   0.00000  -0.00087  -0.00085   1.91993
   A31        1.99469   0.00146   0.00000   0.00581   0.00579   2.00048
   A32        2.18263  -0.00329   0.00000  -0.01296  -0.01298   2.16965
   A33        2.10581   0.00183   0.00000   0.00726   0.00724   2.11305
   A34        1.96055  -0.00276   0.00000  -0.01378  -0.01374   1.94681
   A35        1.92493   0.00220   0.00000   0.01235   0.01238   1.93731
   A36        1.92348   0.00174   0.00000   0.00874   0.00876   1.93224
   A37        1.87920   0.00092   0.00000   0.00935   0.00939   1.88859
   A38        1.87889   0.00091   0.00000   0.00785   0.00788   1.88678
   A39        1.89477  -0.00313   0.00000  -0.02535  -0.02534   1.86943
   A40        2.06717  -0.00168   0.00000  -0.01184  -0.01224   2.05493
   A41        2.22715  -0.00225   0.00000  -0.00991  -0.01033   2.21682
   A42        1.98874   0.00394   0.00000   0.02255   0.02212   2.01087
   A43        1.94442   0.00331   0.00000   0.01371   0.01373   1.95815
   A44        1.92603  -0.00264   0.00000  -0.02492  -0.02499   1.90104
   A45        1.92089  -0.00239   0.00000  -0.01476  -0.01496   1.90593
   A46        1.94661  -0.00053   0.00000  -0.00244  -0.00239   1.94422
   A47        1.88056   0.00061   0.00000   0.01710   0.01715   1.89771
   A48        1.84201   0.00154   0.00000   0.01183   0.01157   1.85358
    D1       -0.63948   0.00058   0.00000  -0.02165  -0.02140  -0.66088
    D2        2.48158   0.00156   0.00000   0.04072   0.04052   2.52210
    D3       -2.64272  -0.00174   0.00000  -0.05213  -0.05192  -2.69464
    D4        0.47833  -0.00076   0.00000   0.01024   0.01001   0.48834
    D5        1.49180  -0.00049   0.00000  -0.03935  -0.03914   1.45266
[...]
                 (A) (A) (A) (A) (A) (A) (A) (A) (A) (A) (A) (A)
                 (A) (A) (A) (A) (A) (A) (A) (A) (A) (A) (A) (A)
                 (A) (A) (A) (A) (A) (A) (A) (A) (A) (A) (A) (A)
                 (A) (A) (A) (A) (A) (A) (A) (A) (A) (A) (A) (A)
                 (A) (A) (A) (A) (A) (A) (A) (A) (A) (A) (A) (A)
                 (A) (A) (A) (A) (A) (A) (A) (A) (A) (A) (A) (A)
                 (A) (A) (A) (A) (A) (A) (A) (A) (A) (A) (A) (A)
                 (A) (A) (A) (A) (A) (A) (A) (A) (A) (A) (A) (A)
                 (A) (A) (A) (A) (A) (A) (A) (A) (A) (A) (A) (A)
                 (A) (A) (A) (A) (A) (A) (A) (A) (A) (A) (A) (A)
                 (A) (A) (A) (A) (A) (A) (A) (A) (A) (A) (A) (A)
                 (A) (A) (A) (A) (A) (A) (A) (A) (A) (A) (A) (A)
                 (A) (A) (A) (A) (A) (A) (A) (A) (A) (A) (A) (A)
                 (A) (A) (A) (A) (A) (A) (A) (A) (A)
 The electronic state is 1-A.
 Alpha  occ. eigenvalues --  -11.23020 -11.22460 -11.21868 -11.21729 -11.21712
 Alpha  occ. eigenvalues --  -11.21539 -11.21506 -11.21436 -11.21417 -11.21348
 Alpha  occ. eigenvalues --   -1.10821  -1.08492  -1.01823  -0.98143  -0.93838
 Alpha  occ. eigenvalues --   -0.91939  -0.86963  -0.82855  -0.70494  -0.69519
 Alpha  occ. eigenvalues --   -0.64988  -0.61512  -0.60591  -0.58878  -0.58366
 Alpha  occ. eigenvalues --   -0.56774  -0.55298  -0.54966  -0.53295  -0.52261
 Alpha  occ. eigenvalues --   -0.51859  -0.51173  -0.50832  -0.49581  -0.48519
 Alpha  occ. eigenvalues --   -0.46073  -0.44624  -0.33371  -0.31514
 Alpha virt. eigenvalues --    0.18142   0.19779   0.22152   0.24486   0.25192
 Alpha virt. eigenvalues --    0.27439   0.28535   0.28922   0.30318   0.30811
 Alpha virt. eigenvalues --    0.31477   0.32261   0.33202   0.33794   0.34383
 Alpha virt. eigenvalues --    0.35458   0.36114   0.36962   0.39185   0.40602
 Alpha virt. eigenvalues --    0.41328   0.42631   0.43685   0.44253   0.45395
 Alpha virt. eigenvalues --    0.51702   0.54378   0.61070   0.62576   0.70520
 Alpha virt. eigenvalues --    0.71073   0.72196   0.73768   0.76075   0.76177
 Alpha virt. eigenvalues --    0.76620   0.79010   0.79474   0.81070   0.82306
 Alpha virt. eigenvalues --    0.83713   0.85579   0.89117   0.91091   0.91343
 Alpha virt. eigenvalues --    0.92820   0.94745   0.97065   0.98284   0.98818
 Alpha virt. eigenvalues --    0.99710   1.00468   1.01911   1.03844   1.06577
 Alpha virt. eigenvalues --    1.08019   1.08221   1.09393   1.11664   1.12687
 Alpha virt. eigenvalues --    1.13026   1.13870   1.14856   1.15402   1.16045
 Alpha virt. eigenvalues --    1.16257   1.16619   1.18722   1.19116   1.20671
 Alpha virt. eigenvalues --    1.20953   1.23032   1.23885   1.25765   1.28153
 Alpha virt. eigenvalues --    1.34332   1.41723   1.42153   1.44890   1.46395
 Alpha virt. eigenvalues --    1.48456   1.54136   1.55360   1.57256   1.58165
 Alpha virt. eigenvalues --    1.61459   1.63397   1.66485   1.69046   1.69645
 Alpha virt. eigenvalues --    1.73917   1.82243   1.91111   1.93363   1.96231
 Alpha virt. eigenvalues --    1.98688   2.01467   2.02277   2.03942   2.08565
 Alpha virt. eigenvalues --    2.09706   2.10748   2.11744   2.13037   2.14903
 Alpha virt. eigenvalues --    2.15780   2.16940   2.19854   2.23666   2.28347
 Alpha virt. eigenvalues --    2.29590   2.30325   2.33235   2.35347   2.35688
 Alpha virt. eigenvalues --    2.35978   2.36098   2.38923   2.40264   2.41259
 Alpha virt. eigenvalues --    2.42195   2.43169   2.44154   2.45371   2.46084
 Alpha virt. eigenvalues --    2.47201   2.49167   2.49622   2.51174   2.54099
 Alpha virt. eigenvalues --    2.57315   2.58365   2.61888   2.63241   2.64107
 Alpha virt. eigenvalues --    2.67127   2.68175   2.71776   2.73352   2.73474
 Alpha virt. eigenvalues --    2.75815   2.77410   2.80796   2.82634   2.85354
 Alpha virt. eigenvalues --    2.87137   2.89441   2.92178   2.93739   2.94867
 Alpha virt. eigenvalues --    2.97869   2.99094   3.00960   3.02677   3.05807
 Alpha virt. eigenvalues --    3.06402   3.07703   3.09315   3.13762   3.17093
 Alpha virt. eigenvalues --    3.17589   3.19238   3.20046   3.21242   3.22334
 Alpha virt. eigenvalues --    3.24167   3.25050   3.26607   3.27420   3.37866
 Alpha virt. eigenvalues --    3.40355   3.46023   3.46902   3.56200   3.58183
 Alpha virt. eigenvalues --    3.59499   3.62406   3.67928   3.75494   3.78622
 Alpha virt. eigenvalues --    3.80005   3.81570   3.82569   3.83286   3.83898
 Alpha virt. eigenvalues --    3.84750   3.86481   3.87645   3.89820   3.91558
 Alpha virt. eigenvalues --    3.97645   4.59389   4.63170   4.74472   4.82572
 Alpha virt. eigenvalues --    4.88928   4.92582   4.93409   5.07840   5.10766
 Alpha virt. eigenvalues --    5.17766
          Condensed to atoms (all electrons):
               1          2          3          4          5          6
     1  C    5.004767   0.414473   0.411715   0.337355  -0.056085   0.000011
     2  H    0.414473   0.587507  -0.028296  -0.046308  -0.004587  -0.000489
     3  H    0.411715  -0.028296   0.572983  -0.038988   0.003071  -0.000005
     4  C    0.337355  -0.046308  -0.038988   4.952603   0.351934  -0.045679
     5  C   -0.056085  -0.004587   0.003071   0.351934   4.891804   0.400946
     6  H    0.000011  -0.000489  -0.000005  -0.045679   0.400946   0.596033
     7  H    0.003801   0.000106  -0.000108  -0.042765   0.407087  -0.027466
     8  H   -0.003698   0.002378  -0.000034  -0.041506   0.397495  -0.037541
     9  C   -0.047991   0.002531  -0.001860   0.697840  -0.046054  -0.001011
    10  H    0.003272  -0.000118   0.000031  -0.037842  -0.006525   0.000135
    11  C   -0.007749   0.000160  -0.002811  -0.050271   0.003364  -0.000101
    12  H   -0.001745   0.000030  -0.001657  -0.000691   0.000109  -0.000003
    13  H    0.000152   0.000017   0.000184  -0.000628  -0.000106  -0.000004
    14  H    0.000310  -0.000013  -0.000067  -0.000247  -0.000095   0.000017
    15  C    0.000587  -0.000015   0.000200  -0.000018  -0.000000  -0.000000
    16  H   -0.000040   0.000000   0.000022   0.000001  -0.000000  -0.000000
    17  H   -0.000302  -0.000016  -0.000131  -0.000011  -0.000000   0.000000
    18  H    0.000130  -0.000002  -0.000135  -0.000005   0.000000   0.000000
    19  C   -0.004325   0.000787   0.001388   0.000041  -0.000003   0.000000
    20  C   -0.000099  -0.000004  -0.000043   0.000001  -0.000000  -0.000000
    21  H   -0.000003   0.000003  -0.000002   0.000000  -0.000000  -0.000000
    22  H    0.000024  -0.000002  -0.000007  -0.000000   0.000000   0.000000
    23  H   -0.000005   0.000000   0.000002   0.000000  -0.000000   0.000000
    24  C   -0.061827  -0.000900  -0.000504   0.006443  -0.000149  -0.000111
    25  H    0.000175   0.001011   0.000111  -0.000152   0.000010   0.000015
    26  C    0.332330  -0.046074  -0.041801  -0.055544  -0.000661   0.000609
    27  H   -0.042370   0.004477  -0.003118  -0.001813   0.000243  -0.000015
    28  H   -0.046841  -0.001931   0.004515  -0.002075  -0.000289   0.000197
               7          8          9         10         11         12
     1  C    0.003801  -0.003698  -0.047991   0.003272  -0.007749  -0.001745
     2  H    0.000106   0.002378   0.002531  -0.000118   0.000160   0.000030
     3  H   -0.000108  -0.000034  -0.001860   0.000031  -0.002811  -0.001657
     4  C   -0.042765  -0.041506   0.697840  -0.037842  -0.050271  -0.000691
     5  C    0.407087   0.397495  -0.046054  -0.006525   0.003364   0.000109
     6  H   -0.027466  -0.037541  -0.001011   0.000135  -0.000101  -0.000003
     7  H    0.568858  -0.026764  -0.002890   0.002385   0.000132   0.000005
     8  H   -0.026764   0.591921  -0.000373   0.000216  -0.000105   0.000002
     9  C   -0.002890  -0.000373   4.938971   0.404494   0.340494  -0.043903
    10  H    0.002385   0.000216   0.404494   0.558671  -0.041279   0.003299
    11  C    0.000132  -0.000105   0.340494  -0.041279   4.900974   0.409079
    12  H    0.000005   0.000002  -0.043903   0.003299   0.409079   0.577164
    13  H   -0.000006   0.000017  -0.041523  -0.001122   0.401144  -0.027132
    14  H   -0.000006  -0.000004  -0.041805  -0.001264   0.402169  -0.029956
    15  C   -0.000000   0.000000   0.000015  -0.000000  -0.000147  -0.000000
    16  H    0.000000   0.000000   0.000000   0.000000   0.000003  -0.000008
    17  H    0.000000  -0.000000  -0.000045   0.000000   0.000074   0.000412
    18  H   -0.000000  -0.000000   0.000000  -0.000000  -0.000009   0.000079
    19  C    0.000000   0.000000  -0.000001   0.000000   0.000013  -0.000026
    20  C    0.000000  -0.000000  -0.000000   0.000000  -0.000000   0.000000
    21  H    0.000000  -0.000000  -0.000000   0.000000   0.000000  -0.000000
    22  H   -0.000000  -0.000000   0.000000  -0.000000  -0.000000  -0.000000
    23  H    0.000000   0.000000   0.000000   0.000000   0.000000  -0.000000
    24  C    0.000004   0.000004   0.000114   0.000002  -0.000031   0.000026
    25  H   -0.000000  -0.000001  -0.000002  -0.000000   0.000000  -0.000002
    26  C   -0.000109   0.000086  -0.004911  -0.000113   0.000577  -0.000737
    27  H   -0.000005   0.000006   0.001406  -0.000046  -0.000082  -0.000475
    28  H   -0.000050   0.000058   0.000760   0.000001  -0.000033  -0.000010
              13         14         15         16         17         18
     1  C    0.000152   0.000310   0.000587  -0.000040  -0.000302   0.000130
     2  H    0.000017  -0.000013  -0.000015   0.000000  -0.000016  -0.000002
     3  H    0.000184  -0.000067   0.000200   0.000022  -0.000131  -0.000135
     4  C   -0.000628  -0.000247  -0.000018   0.000001  -0.000011  -0.000005
     5  C   -0.000106  -0.000095  -0.000000  -0.000000  -0.000000   0.000000
     6  H   -0.000004   0.000017  -0.000000  -0.000000   0.000000   0.000000
     7  H   -0.000006  -0.000006  -0.000000   0.000000   0.000000  -0.000000
     8  H    0.000017  -0.000004   0.000000   0.000000  -0.000000  -0.000000
     9  C   -0.041523  -0.041805   0.000015   0.000000  -0.000045   0.000000
    10  H   -0.001122  -0.001264  -0.000000   0.000000   0.000000  -0.000000
    11  C    0.401144   0.402169  -0.000147   0.000003   0.000074  -0.000009
    12  H   -0.027132  -0.029956  -0.000000  -0.000008   0.000412   0.000079
    13  H    0.583648  -0.035462   0.000004   0.000000  -0.000013  -0.000000
    14  H   -0.035462   0.586720  -0.000015  -0.000000   0.000114   0.000000
    15  C    0.000004  -0.000015   4.907254   0.399852   0.407154   0.401208
    16  H    0.000000  -0.000000   0.399852   0.584669  -0.026060  -0.035759
    17  H   -0.000013   0.000114   0.407154  -0.026060   0.568221  -0.028659
    18  H   -0.000000   0.000000   0.401208  -0.035759  -0.028659   0.587442
    19  C   -0.000000   0.000001   0.350333  -0.043537  -0.037848  -0.043384
    20  C    0.000000  -0.000000  -0.064931  -0.002223   0.003725  -0.002632
    21  H   -0.000000  -0.000000   0.003785  -0.000053  -0.000113  -0.000032
    22  H   -0.000000   0.000000  -0.001975  -0.000456  -0.000068   0.002756
    23  H    0.000000  -0.000000  -0.001201   0.002766  -0.000031  -0.000476
    24  C    0.000002  -0.000009  -0.044248  -0.000365  -0.003253  -0.000031
    25  H    0.000000   0.000000   0.003528  -0.000121   0.000061  -0.000121
    26  C   -0.000037   0.000163  -0.008144   0.000117  -0.002069   0.000367
    27  H    0.000037  -0.000140  -0.002693   0.000113  -0.001675  -0.000076
    28  H   -0.000000  -0.000000   0.000195   0.000021   0.000058  -0.000014
              19         20         21         22         23         24
     1  C   -0.004325  -0.000099  -0.000003   0.000024  -0.000005  -0.061827
     2  H    0.000787  -0.000004   0.000003  -0.000002   0.000000  -0.000900
     3  H    0.001388  -0.000043  -0.000002  -0.000007   0.000002  -0.000504
     4  C    0.000041   0.000001   0.000000  -0.000000   0.000000   0.006443
     5  C   -0.000003  -0.000000  -0.000000   0.000000  -0.000000  -0.000149
     6  H    0.000000  -0.000000  -0.000000   0.000000   0.000000  -0.000111
     7  H    0.000000   0.000000   0.000000  -0.000000   0.000000   0.000004
     8  H    0.000000  -0.000000  -0.000000  -0.000000   0.000000   0.000004
     9  C   -0.000001  -0.000000  -0.000000   0.000000   0.000000   0.000114
    10  H    0.000000   0.000000   0.000000  -0.000000   0.000000   0.000002
    11  C    0.000013  -0.000000   0.000000  -0.000000   0.000000  -0.000031
    12  H   -0.000026   0.000000  -0.000000  -0.000000  -0.000000   0.000026
    13  H   -0.000000   0.000000  -0.000000  -0.000000   0.000000   0.000002
    14  H    0.000001  -0.000000  -0.000000   0.000000  -0.000000  -0.000009
    15  C    0.350333  -0.064931   0.003785  -0.001975  -0.001201  -0.044248
    16  H   -0.043537  -0.002223  -0.000053  -0.000456   0.002766  -0.000365
    17  H   -0.037848   0.003725  -0.000113  -0.000068  -0.000031  -0.003253
    18  H   -0.043384  -0.002632  -0.000032   0.002756  -0.000476  -0.000031
    19  C    4.914192   0.353753  -0.041639  -0.043899  -0.044274   0.697734
    20  C    0.353753   4.900112   0.406218   0.398238   0.398811  -0.044415
    21  H   -0.041639   0.406218   0.566018  -0.026703  -0.026549  -0.002632
    22  H   -0.043899   0.398238  -0.026703   0.594542  -0.037806  -0.000422
    23  H   -0.044274   0.398811  -0.026549  -0.037806   0.593607  -0.001270
    24  C    0.697734  -0.044415  -0.002632  -0.000422  -0.001270   4.962747
    25  H   -0.038449  -0.006963   0.002335   0.000182   0.000187   0.403391
    26  C   -0.050100   0.003126   0.000148  -0.000068  -0.000131   0.338699
    27  H    0.000438   0.000051   0.000007  -0.000005   0.000007  -0.044060
    28  H    0.001583  -0.000094  -0.000010  -0.000002   0.000009  -0.041394
              25         26         27         28
     1  C    0.000175   0.332330  -0.042370  -0.046841
     2  H    0.001011  -0.046074   0.004477  -0.001931
     3  H    0.000111  -0.041801  -0.003118   0.004515
     4  C   -0.000152  -0.055544  -0.001813  -0.002075
     5  C    0.000010  -0.000661   0.000243  -0.000289
     6  H    0.000015   0.000609  -0.000015   0.000197
     7  H   -0.000000  -0.000109  -0.000005  -0.000050
     8  H   -0.000001   0.000086   0.000006   0.000058
     9  C   -0.000002  -0.004911   0.001406   0.000760
    10  H   -0.000000  -0.000113  -0.000046   0.000001
    11  C    0.000000   0.000577  -0.000082  -0.000033
    12  H   -0.000002  -0.000737  -0.000475  -0.000010
    13  H    0.000000  -0.000037   0.000037  -0.000000
    14  H    0.000000   0.000163  -0.000140  -0.000000
    15  C    0.003528  -0.008144  -0.002693   0.000195
    16  H   -0.000121   0.000117   0.000113   0.000021
    17  H    0.000061  -0.002069  -0.001675   0.000058
    18  H   -0.000121   0.000367  -0.000076  -0.000014
    19  C   -0.038449  -0.050100   0.000438   0.001583
    20  C   -0.006963   0.003126   0.000051  -0.000094
    21  H    0.002335   0.000148   0.000007  -0.000010
    22  H    0.000182  -0.000068  -0.000005  -0.000002
    23  H    0.000187  -0.000131   0.000007   0.000009
    24  C    0.403391   0.338699  -0.044060  -0.041394
    25  H    0.557388  -0.039113   0.003152  -0.003424
    26  C   -0.039113   4.979544   0.415850   0.413482
    27  H    0.003152   0.415850   0.575347  -0.028362
    28  H   -0.003424   0.413482  -0.028362   0.585267
 Mulliken charges:
               1
     1  C   -0.236021
     2  H    0.115272
     3  H    0.125346
     4  C    0.018322
     5  C   -0.341505
     6  H    0.114461
     7  H    0.117792
     8  H    0.117844
     9  C   -0.154256
    10  H    0.115801
    11  C   -0.355567
    12  H    0.116140
    13  H    0.120830
    14  H    0.119588
    15  C   -0.350727
    16  H    0.121058
    17  H    0.120473
    18  H    0.119352
    19  C    0.027222
    20  C   -0.342631
    21  H    0.119222
    22  H    0.115672
    23  H    0.116356
    24  C   -0.163543
    25  H    0.116803
    26  C   -0.235486
    27  H    0.123802
    28  H    0.118380
 Sum of Mulliken charges =  -0.00000
 Mulliken charges with hydrogens summed into heavy atoms:
               1
     1  C    0.004596
     4  C    0.018322
     5  C    0.008593
     9  C   -0.038454
    11  C    0.000991
    15  C    0.010156
    19  C    0.027222
    20  C    0.008618
    24  C   -0.046740
    26  C    0.006696
 Electronic spatial extent (au):  <R**2>=           2384.0041
 Charge=             -0.0000 electrons
 Dipole moment (field-independent basis, Debye):
    X=              0.3027    Y=              0.1253    Z=              0.0460  Tot=              0.3308
 Quadrupole moment (field-independent basis, Debye-Ang):
   XX=            -64.3023   YY=            -63.2901   ZZ=            -67.3956
   XY=              0.7521   XZ=              1.2367   YZ=             -0.3487
 Traceless Quadrupole moment (field-independent basis, Debye-Ang):
   XX=              0.6937   YY=              1.7059   ZZ=             -2.3996
   XY=              0.7521   XZ=              1.2367   YZ=             -0.3487
 Octapole moment (field-independent basis, Debye-Ang**2):
  XXX=              2.6682  YYY=             -2.9989  ZZZ=              0.9000  XYY=             -0.6415
  XXY=              4.0909  XXZ=             -2.0918  XZZ=              1.2120  YZZ=              1.4955
  YYZ=              0.6110  XYZ=             -0.3641
 Hexadecapole moment (field-independent basis, Debye-Ang**3):
 XXXX=          -2435.7134 YYYY=           -693.4927 ZZZZ=           -166.6413 XXXY=              2.3046
 XXXZ=             14.7514 YYYX=            -11.0527 YYYZ=             -1.4214 ZZZX=              2.8120
 ZZZY=             -0.6411 XXYY=           -520.1241 XXZZ=           -449.2336 YYZZ=           -138.3649
 XXYZ=             -4.2785 YYXZ=              0.5785 ZZXY=              5.9187
 N-N= 5.190880886799D+02 E-N=-1.942888916562D+03  KE= 3.887471638829D+02
 No NMR shielding tensors so no spin-rotation constants.
 Leave Link  601 at Fri Sep 17 16:43:43 2021, MaxMem=   524288000 cpu:               0.3 elap:               0.8
 (Enter /opt/gaussian/g16_legacy/l9999.exe)
 1\1\GINC-TRUENO91\FOpt\RMP2-FC\6-31G(d,p)\C10H18\JRAMOS\17-Sep-2021\0\
 \#p opt mp2/6-31g(d,p)\\Conformer number 3577. Energy MM = 23.242 kcal
 /mol\\0,1\C,0.7940480484,-0.1579226738,0.9880658793\H,0.6541155962,-0.
 4233389361,2.0399501973\H,0.6878479433,-1.0853266339,0.4231243462\C,2.
 1620467246,0.449112376,0.8031939293\C,2.6862935421,1.2349591052,1.9741
 173042\H,1.98300301,2.0178349168,2.2666324465\H,3.6408184595,1.7068586
 546,1.744526177\H,2.8231678934,0.5897916091,2.8446626718\C,2.866459076
 5,0.3564300011,-0.3401192792\H,3.8318393752,0.8534835126,-0.3791289132
 \C,2.4642825499,-0.3659262239,-1.5900784233\H,1.4871693858,-0.83528211
 86,-1.5009722976\H,3.1891532962,-1.1418202401,-1.843677477\H,2.4262440
 837,0.3218528875,-2.4369661456\C,-2.1546382431,-0.6859618059,-1.449113
 3107\H,-2.8983523539,-0.2272805021,-2.1046114238\H,-1.1744299287,-0.31
 0880002,-1.7323960586\H,-2.1755555566,-1.7591466336,-1.6507871569\C,-2
 .4891465792,-0.4237756023,-0.0068143706\C,-3.8196932997,-0.9647953203,
 0.4385981816\H,-4.0101490967,-0.7446190267,1.4878872251\H,-3.865390871
 4,-2.0475638039,0.3017319234\H,-4.6312869357,-0.5364006852,-0.15392884
 7\C,-1.6911477822,0.2413877535,0.8496441693\H,-2.0356851093,0.34692307
 79,1.8753093948\C,-0.3310323816,0.8048270645,0.5624023832\H,-0.2093148
 529,1.0357461042,-0.496604343\H,-0.2107659936,1.7508331455,1.097051817
 5\\Version=EM64L-G16RevA.03\State=1-A\HF=-389.1567534\MP2=-390.5738646
 \RMSD=5.145e-09\RMSF=3.207e-06\Dipole=-0.0798601,-0.0528358,-0.0659259
 \PG=C01 [X(C10H18)]\\@


 THERE'S NOTHING SO GREAT AS THE GREAT OUTDOORS.

                                       -- ZIGGY
 Job cpu time:       0 days  1 hours 18 minutes 28.3 seconds.
 Elapsed time:       0 days  1 hours 18 minutes 42.4 seconds.
 File lengths (MBytes):  RWF=     32 Int=      0 D2E=      0 Chk=      7 Scr=      1
 Normal termination of Gaussian 16 at Fri Sep 17 16:43:44 2021.
