 Entering Gaussian System, Link 0=/opt/gaussian/g16_legacy/g16
 Input=01-IsoP_3119_gaussian.com
 Output=01-IsoP_3119_gaussian.log
 Initial command:
 /opt/gaussian/g16_legacy/l1.exe "/scratch-local/jramos/2661388/Gau-2631.inp" -scrdir="/scratch-local/jramos/2661388/"
 Entering Link 1 = /opt/gaussian/g16_legacy/l1.exe PID=      2632.
  
 Copyright (c) 1988,1990,1992,1993,1995,1998,2003,2009,2016,
            Gaussian, Inc.  All Rights Reserved.
  
 This is part of the Gaussian(R) 16 program.  It is based on
 the Gaussian(R) 09 system (copyright 2009, Gaussian, Inc.),
 the Gaussian(R) 03 system (copyright 2003, Gaussian, Inc.),
 the Gaussian(R) 98 system (copyright 1998, Gaussian, Inc.),
 the Gaussian(R) 94 system (copyright 1995, Gaussian, Inc.),
 the Gaussian 92(TM) system (copyright 1992, Gaussian, Inc.),
 the Gaussian 90(TM) system (copyright 1990, Gaussian, Inc.),
 the Gaussian 88(TM) system (copyright 1988, Gaussian, Inc.),
 the Gaussian 86(TM) system (copyright 1986, Carnegie Mellon
 University), and the Gaussian 82(TM) system (copyright 1983,
 Carnegie Mellon University). Gaussian is a federally registered
 trademark of Gaussian, Inc.
  
 This software contains proprietary and confidential information,
 including trade secrets, belonging to Gaussian, Inc.
  
 This software is provided under written license and may be
 used, copied, transmitted, or stored only in accord with that
 written license.
  
 The following legend is applicable only to US Government
 contracts under FAR:
  
                    RESTRICTED RIGHTS LEGEND
  
 Use, reproduction and disclosure by the US Government is
 subject to restrictions as set forth in subparagraphs (a)
 and (c) of the Commercial Computer Software - Restricted
 Rights clause in FAR 52.227-19.
  
 Gaussian, Inc.
 340 Quinnipiac St., Bldg. 40, Wallingford CT 06492
  
  
 ---------------------------------------------------------------
 Warning -- This program may not be used in any manner that
 competes with the business of Gaussian, Inc. or will provide
 assistance to any competitor of Gaussian, Inc.  The licensee
 of this program is prohibited from giving any competitor of
 Gaussian, Inc. access to this program.  By using this program,
 the user acknowledges that Gaussian, Inc. is engaged in the
 business of creating and licensing software in the field of
 computational chemistry and represents and warrants to the
 licensee that it is not a competitor of Gaussian, Inc. and that
 it will not use this program in any manner prohibited above.
 ---------------------------------------------------------------
  

 Cite this work as:
 Gaussian 16, Revision A.03,
 M. J. Frisch, G. W. Trucks, H. B. Schlegel, G. E. Scuseria, 
 M. A. Robb, J. R. Cheeseman, G. Scalmani, V. Barone, 
 G. A. Petersson, H. Nakatsuji, X. Li, M. Caricato, A. V. Marenich, 
 J. Bloino, B. G. Janesko, R. Gomperts, B. Mennucci, H. P. Hratchian, 
 J. V. Ortiz, A. F. Izmaylov, J. L. Sonnenberg, D. Williams-Young, 
 F. Ding, F. Lipparini, F. Egidi, J. Goings, B. Peng, A. Petrone, 
 T. Henderson, D. Ranasinghe, V. G. Zakrzewski, J. Gao, N. Rega, 
 G. Zheng, W. Liang, M. Hada, M. Ehara, K. Toyota, R. Fukuda, 
 J. Hasegawa, M. Ishida, T. Nakajima, Y. Honda, O. Kitao, H. Nakai, 
 T. Vreven, K. Throssell, J. A. Montgomery, Jr., J. E. Peralta, 
 F. Ogliaro, M. J. Bearpark, J. J. Heyd, E. N. Brothers, K. N. Kudin, 
 V. N. Staroverov, T. A. Keith, R. Kobayashi, J. Normand, 
 K. Raghavachari, A. P. Rendell, J. C. Burant, S. S. Iyengar, 
 J. Tomasi, M. Cossi, J. M. Millam, M. Klene, C. Adamo, R. Cammi, 
 J. W. Ochterski, R. L. Martin, K. Morokuma, O. Farkas, 
 J. B. Foresman, and D. J. Fox, Gaussian, Inc., Wallingford CT, 2016.
 
 ******************************************
 Gaussian 16:  EM64L-G16RevA.03 25-Dec-2016
                17-Sep-2021 
 ******************************************
 %chk=01-IsoP_3119_gaussian.chk
 %nproc=1
 Will use up to    1 processors via shared memory.
 %mem=4000Mb
 ---------------------
 #p opt mp2/6-31g(d,p)
 ---------------------
 1/18=20,19=15,38=1/1,3;
 2/9=110,12=2,17=6,18=5,40=1/2;
 3/5=1,6=6,7=101,11=9,25=1,30=1,71=1/1,2,3;
 4//1;
 5/5=2,38=5/2;
 8/6=4,10=2/1;
 9/15=2,16=-3/6;
 10/5=1/2;
 6/7=2,8=2,9=2,10=2/1;
 7/12=2/1,2,3,16;
 1/18=20,19=15/3(2);
 2/9=110/2;
 99//99;
 2/9=110/2;
 3/5=1,6=6,7=101,11=9,25=1,30=1,71=1/1,2,3;
 4/5=5,16=3,69=1/1;
 5/5=2,38=5/2;
 8/6=4,10=2/1;
 9/15=2,16=-3/6;
 10/5=1/2;
 7/12=2/1,2,3,16;
 1/18=20,19=15/3(-8);
 2/9=110/2;
 6/7=2,8=2,9=2,10=2/1;
 99//99;
 Leave Link    1 at Fri Sep 17 14:57:51 2021, MaxMem=   524288000 cpu:               0.0 elap:               0.1
 (Enter /opt/gaussian/g16_legacy/l101.exe)
 --------------------------------------------------
 Conformer number 3119. Energy MM = 23.287 kcal/mol
 --------------------------------------------------
 Symbolic Z-matrix:
 Charge =  0 Multiplicity = 1
 C                     0.5889    0.0633   -0.9026 
 H                     0.6908    1.0694   -1.3266 
 H                    -0.1526   -0.437    -1.54 
 C                     1.9007   -0.689    -0.9908 
 C                     1.7704   -2.1878   -1.0858 
 H                     1.1922   -2.4629   -1.974 
 H                     1.2615   -2.585    -0.202 
 H                     2.7435   -2.685    -1.1577 
 C                     3.115    -0.1046   -1.0123 
 H                     3.9968   -0.7386   -1.1017 
 C                     3.4261    1.3547   -0.905 
 H                     4.1686    1.5119   -0.1159 
 H                     2.5565    1.9684   -0.6597 
 H                     3.8496    1.7147   -1.8474 
 C                    -3.6554    1.3575    0.8382 
 H                    -4.1847    1.2069    1.7848 
 H                    -3.3646    2.412     0.7846 
 H                    -4.3505    1.1622    0.0152 
 C                    -2.4701    0.4317    0.7518 
 C                    -2.819    -1.029     0.8307 
 H                    -3.2077   -1.2698    1.8254 
 H                    -1.9718   -1.6889    0.6307 
 H                    -3.5902   -1.2715    0.0915 
 C                    -1.2242    0.9231    0.6044 
 H                    -1.0963    2.0038    0.5408 
 C                     0.0665    0.1511    0.535 
 H                     0.8013    0.6669    1.1667 
 H                    -0.0416   -0.8484    0.9678 
 
 ITRead=  0  0  0  0  0  0  0  0  0  0  0  0  0  0  0  0  0  0  0  0
 ITRead=  0  0  0  0  0  0  0  0
 MicOpt= -1 -1 -1 -1 -1 -1 -1 -1 -1 -1 -1 -1 -1 -1 -1 -1 -1 -1 -1 -1
 MicOpt= -1 -1 -1 -1 -1 -1 -1 -1
 NAtoms=     28 NQM=       28 NQMF=       0 NMMI=      0 NMMIF=      0
                NMic=       0 NMicF=      0.
                    Isotopes and Nuclear Properties:
 (Nuclear quadrupole moments (NQMom) in fm**2, nuclear magnetic moments (NMagM)
  in nuclear magnetons)

  Atom         1           2           3           4           5           6           7           8           9          10
 IAtWgt=          12           1           1          12          12           1           1           1          12           1
 AtmWgt=  12.0000000   1.0078250   1.0078250  12.0000000  12.0000000   1.0078250   1.0078250   1.0078250  12.0000000   1.0078250
 NucSpn=           0           1           1           0           0           1           1           1           0           1
 AtZEff=  -0.0000000  -0.0000000  -0.0000000  -0.0000000  -0.0000000  -0.0000000  -0.0000000  -0.0000000  -0.0000000  -0.0000000
 NQMom=    0.0000000   0.0000000   0.0000000   0.0000000   0.0000000   0.0000000   0.0000000   0.0000000   0.0000000   0.0000000
 NMagM=    0.0000000   2.7928460   2.7928460   0.0000000   0.0000000   2.7928460   2.7928460   2.7928460   0.0000000   2.7928460
 AtZNuc=   6.0000000   1.0000000   1.0000000   6.0000000   6.0000000   1.0000000   1.0000000   1.0000000   6.0000000   1.0000000

  Atom        11          12          13          14          15          16          17          18          19          20
 IAtWgt=          12           1           1           1          12           1           1           1          12          12
 AtmWgt=  12.0000000   1.0078250   1.0078250   1.0078250  12.0000000   1.0078250   1.0078250   1.0078250  12.0000000  12.0000000
 NucSpn=           0           1           1           1           0           1           1           1           0           0
 AtZEff=  -0.0000000  -0.0000000  -0.0000000  -0.0000000  -0.0000000  -0.0000000  -0.0000000  -0.0000000  -0.0000000  -0.0000000
 NQMom=    0.0000000   0.0000000   0.0000000   0.0000000   0.0000000   0.0000000   0.0000000   0.0000000   0.0000000   0.0000000
 NMagM=    0.0000000   2.7928460   2.7928460   2.7928460   0.0000000   2.7928460   2.7928460   2.7928460   0.0000000   0.0000000
 AtZNuc=   6.0000000   1.0000000   1.0000000   1.0000000   6.0000000   1.0000000   1.0000000   1.0000000   6.0000000   6.0000000

  Atom        21          22          23          24          25          26          27          28
 IAtWgt=           1           1           1          12           1          12           1           1
 AtmWgt=   1.0078250   1.0078250   1.0078250  12.0000000   1.0078250  12.0000000   1.0078250   1.0078250
 NucSpn=           1           1           1           0           1           0           1           1
 AtZEff=  -0.0000000  -0.0000000  -0.0000000  -0.0000000  -0.0000000  -0.0000000  -0.0000000  -0.0000000
 NQMom=    0.0000000   0.0000000   0.0000000   0.0000000   0.0000000   0.0000000   0.0000000   0.0000000
 NMagM=    2.7928460   2.7928460   2.7928460   0.0000000   2.7928460   0.0000000   2.7928460   2.7928460
 AtZNuc=   1.0000000   1.0000000   1.0000000   6.0000000   1.0000000   6.0000000   1.0000000   1.0000000
 Leave Link  101 at Fri Sep 17 14:57:52 2021, MaxMem=   524288000 cpu:               0.3 elap:               0.3
 (Enter /opt/gaussian/g16_legacy/l103.exe)

 GradGradGradGradGradGradGradGradGradGradGradGradGradGradGradGradGradGrad
 Berny optimization.
 Initialization pass.
                           ----------------------------
                           !    Initial Parameters    !
                           ! (Angstroms and Degrees)  !
 --------------------------                            --------------------------
 ! Name  Definition              Value          Derivative Info.                !
 --------------------------------------------------------------------------------
 ! R1    R(1,2)                  1.0965         estimate D2E/DX2                !
 ! R2    R(1,3)                  1.0984         estimate D2E/DX2                !
 ! R3    R(1,4)                  1.5148         estimate D2E/DX2                !
 ! R4    R(1,26)                 1.5321         estimate D2E/DX2                !
 ! R5    R(4,5)                  1.5074         estimate D2E/DX2                !
 ! R6    R(4,9)                  1.3478         estimate D2E/DX2                !
 ! R7    R(5,6)                  1.0949         estimate D2E/DX2                !
 ! R8    R(5,7)                  1.0945         estimate D2E/DX2                !
 ! R9    R(5,8)                  1.0951         estimate D2E/DX2                !
 ! R10   R(9,10)                 1.0897         estimate D2E/DX2                !
 ! R11   R(9,11)                 1.4959         estimate D2E/DX2                !
 ! R12   R(11,12)                1.0949         estimate D2E/DX2                !
 ! R13   R(11,13)                1.0922         estimate D2E/DX2                !
 ! R14   R(11,14)                1.0941         estimate D2E/DX2                !
 ! R15   R(15,16)                1.0949         estimate D2E/DX2                !
 ! R16   R(15,17)                1.0952         estimate D2E/DX2                !
 ! R17   R(15,18)                1.0948         estimate D2E/DX2                !
 ! R18   R(15,19)                1.5065         estimate D2E/DX2                !
 ! R19   R(19,20)                1.5039         estimate D2E/DX2                !
 ! R20   R(19,24)                1.3474         estimate D2E/DX2                !
 ! R21   R(20,21)                1.0948         estimate D2E/DX2                !
 ! R22   R(20,22)                1.0923         estimate D2E/DX2                !
 ! R23   R(20,23)                1.0954         estimate D2E/DX2                !
 ! R24   R(24,25)                1.0901         estimate D2E/DX2                !
 ! R25   R(24,26)                1.5056         estimate D2E/DX2                !
 ! R26   R(26,27)                1.0977         estimate D2E/DX2                !
 ! R27   R(26,28)                1.0945         estimate D2E/DX2                !
 ! A1    A(2,1,3)              104.849          estimate D2E/DX2                !
 ! A2    A(2,1,4)              110.6518         estimate D2E/DX2                !
 ! A3    A(2,1,26)             109.9944         estimate D2E/DX2                !
 ! A4    A(3,1,4)              108.9429         estimate D2E/DX2                !
 ! A5    A(3,1,26)             109.9038         estimate D2E/DX2                !
 ! A6    A(4,1,26)             112.2333         estimate D2E/DX2                !
 ! A7    A(1,4,5)              114.9992         estimate D2E/DX2                !
 ! A8    A(1,4,9)              124.4592         estimate D2E/DX2                !
 ! A9    A(5,4,9)              120.5297         estimate D2E/DX2                !
 ! A10   A(4,5,6)              110.2777         estimate D2E/DX2                !
 ! A11   A(4,5,7)              110.4957         estimate D2E/DX2                !
 ! A12   A(4,5,8)              112.2555         estimate D2E/DX2                !
 ! A13   A(6,5,7)              108.5618         estimate D2E/DX2                !
 ! A14   A(6,5,8)              107.5716         estimate D2E/DX2                !
 ! A15   A(7,5,8)              107.5426         estimate D2E/DX2                !
 ! A16   A(4,9,10)             118.5608         estimate D2E/DX2                !
 ! A17   A(4,9,11)             127.5318         estimate D2E/DX2                !
 ! A18   A(10,9,11)            113.9002         estimate D2E/DX2                !
 ! A19   A(9,11,12)            109.4385         estimate D2E/DX2                !
 ! A20   A(9,11,13)            113.4934         estimate D2E/DX2                !
 ! A21   A(9,11,14)            109.858          estimate D2E/DX2                !
 ! A22   A(12,11,13)           107.3012         estimate D2E/DX2                !
 ! A23   A(12,11,14)           108.1228         estimate D2E/DX2                !
 ! A24   A(13,11,14)           108.4658         estimate D2E/DX2                !
 ! A25   A(16,15,17)           107.6441         estimate D2E/DX2                !
 ! A26   A(16,15,18)           108.5681         estimate D2E/DX2                !
 ! A27   A(16,15,19)           110.2062         estimate D2E/DX2                !
 ! A28   A(17,15,18)           107.6711         estimate D2E/DX2                !
 ! A29   A(17,15,19)           112.3333         estimate D2E/DX2                !
 ! A30   A(18,15,19)           110.2916         estimate D2E/DX2                !
 ! A31   A(15,19,20)           114.2901         estimate D2E/DX2                !
 ! A32   A(15,19,24)           120.6425         estimate D2E/DX2                !
 ! A33   A(20,19,24)           125.0649         estimate D2E/DX2                !
 ! A34   A(19,20,21)           110.1017         estimate D2E/DX2                !
 ! A35   A(19,20,22)           113.4053         estimate D2E/DX2                !
 ! A36   A(19,20,23)           110.0567         estimate D2E/DX2                !
 ! A37   A(21,20,22)           107.9901         estimate D2E/DX2                !
 ! A38   A(21,20,23)           108.3288         estimate D2E/DX2                !
 ! A39   A(22,20,23)           106.7821         estimate D2E/DX2                !
 ! A40   A(19,24,25)           118.4527         estimate D2E/DX2                !
 ! A41   A(19,24,26)           127.6437         estimate D2E/DX2                !
 ! A42   A(25,24,26)           113.8956         estimate D2E/DX2                !
 ! A43   A(1,26,24)            111.4045         estimate D2E/DX2                !
 ! A44   A(1,26,27)            109.7949         estimate D2E/DX2                !
 ! A45   A(1,26,28)            110.6327         estimate D2E/DX2                !
 ! A46   A(24,26,27)           107.8417         estimate D2E/DX2                !
 ! A47   A(24,26,28)           111.4291         estimate D2E/DX2                !
 ! A48   A(27,26,28)           105.524          estimate D2E/DX2                !
 ! D1    D(2,1,4,5)           -151.7235         estimate D2E/DX2                !
 ! D2    D(2,1,4,9)             27.0262         estimate D2E/DX2                !
 ! D3    D(3,1,4,5)            -36.9575         estimate D2E/DX2                !
 ! D4    D(3,1,4,9)            141.7921         estimate D2E/DX2                !
 ! D5    D(26,1,4,5)            84.9899         estimate D2E/DX2                !
 ! D6    D(26,1,4,9)           -96.2605         estimate D2E/DX2                !
 ! D7    D(2,1,26,24)           55.3237         estimate D2E/DX2                !
 ! D8    D(2,1,26,27)          -64.0719         estimate D2E/DX2                !
 ! D9    D(2,1,26,28)          179.8583         estimate D2E/DX2                !
 ! D10   D(3,1,26,24)          -59.6231         estimate D2E/DX2                !
 ! D11   D(3,1,26,27)         -179.0187         estimate D2E/DX2                !
 ! D12   D(3,1,26,28)           64.9115         estimate D2E/DX2                !
 ! D13   D(4,1,26,24)          178.9786         estimate D2E/DX2                !
 ! D14   D(4,1,26,27)           59.5831         estimate D2E/DX2                !
 ! D15   D(4,1,26,28)          -56.4868         estimate D2E/DX2                !
 ! D16   D(1,4,5,6)             59.4785         estimate D2E/DX2                !
 ! D17   D(1,4,5,7)            -60.5481         estimate D2E/DX2                !
 ! D18   D(1,4,5,8)            179.4088         estimate D2E/DX2                !
 ! D19   D(9,4,5,6)           -119.3247         estimate D2E/DX2                !
 ! D20   D(9,4,5,7)            120.6488         estimate D2E/DX2                !
 ! D21   D(9,4,5,8)              0.6056         estimate D2E/DX2                !
 ! D22   D(1,4,9,10)          -178.5607         estimate D2E/DX2                !
 ! D23   D(1,4,9,11)             2.4743         estimate D2E/DX2                !
 ! D24   D(5,4,9,10)             0.1237         estimate D2E/DX2                !
 ! D25   D(5,4,9,11)          -178.8413         estimate D2E/DX2                !
 ! D26   D(4,9,11,12)          127.8671         estimate D2E/DX2                !
 ! D27   D(4,9,11,13)            8.047          estimate D2E/DX2                !
 ! D28   D(4,9,11,14)         -113.5669         estimate D2E/DX2                !
 ! D29   D(10,9,11,12)         -51.1386         estimate D2E/DX2                !
 ! D30   D(10,9,11,13)        -170.9587         estimate D2E/DX2                !
 ! D31   D(10,9,11,14)          67.4274         estimate D2E/DX2                !
 ! D32   D(16,15,19,20)         59.574          estimate D2E/DX2                !
 ! D33   D(16,15,19,24)       -120.9867         estimate D2E/DX2                !
 ! D34   D(17,15,19,20)        179.5986         estimate D2E/DX2                !
 ! D35   D(17,15,19,24)         -0.9622         estimate D2E/DX2                !
 ! D36   D(18,15,19,20)        -60.2838         estimate D2E/DX2                !
 ! D37   D(18,15,19,24)        119.1555         estimate D2E/DX2                !
 ! D38   D(15,19,20,21)        -66.7653         estimate D2E/DX2                !
 ! D39   D(15,19,20,22)        172.1176         estimate D2E/DX2                !
 ! D40   D(15,19,20,23)         52.5821         estimate D2E/DX2                !
 ! D41   D(24,19,20,21)        113.8241         estimate D2E/DX2                !
 ! D42   D(24,19,20,22)         -7.293          estimate D2E/DX2                !
 ! D43   D(24,19,20,23)       -126.8285         estimate D2E/DX2                !
 ! D44   D(15,19,24,25)         -0.5149         estimate D2E/DX2                !
 ! D45   D(15,19,24,26)        178.3848         estimate D2E/DX2                !
 ! D46   D(20,19,24,25)        178.8607         estimate D2E/DX2                !
 ! D47   D(20,19,24,26)         -2.2396         estimate D2E/DX2                !
 ! D48   D(19,24,26,1)         103.6636         estimate D2E/DX2                !
 ! D49   D(19,24,26,27)       -135.7866         estimate D2E/DX2                !
 ! D50   D(19,24,26,28)        -20.4223         estimate D2E/DX2                !
 ! D51   D(25,24,26,1)         -77.3945         estimate D2E/DX2                !
 ! D52   D(25,24,26,27)         43.1553         estimate D2E/DX2                !
 ! D53   D(25,24,26,28)        158.5195         estimate D2E/DX2                !
 --------------------------------------------------------------------------------
 Trust Radius=3.00D-01 FncErr=1.00D-07 GrdErr=1.00D-07 EigMax=2.50D+02 EigMin=1.00D-04
 Number of steps in this run=    138 maximum allowed number of steps=    168.
 GradGradGradGradGradGradGradGradGradGradGradGradGradGradGradGradGradGrad

 Leave Link  103 at Fri Sep 17 14:57:52 2021, MaxMem=   524288000 cpu:               0.1 elap:               0.1
 (Enter /opt/gaussian/g16_legacy/l202.exe)
                          Input orientation:                          
 ---------------------------------------------------------------------
 Center     Atomic      Atomic             Coordinates (Angstroms)
 Number     Number       Type             X           Y           Z
 ---------------------------------------------------------------------
      1          6           0        0.588900    0.063300   -0.902600
      2          1           0        0.690800    1.069400   -1.326600
      3          1           0       -0.152600   -0.437000   -1.540000
      4          6           0        1.900700   -0.689000   -0.990800
      5          6           0        1.770400   -2.187800   -1.085800
      6          1           0        1.192200   -2.462900   -1.974000
      7          1           0        1.261500   -2.585000   -0.202000
      8          1           0        2.743500   -2.685000   -1.157700
      9          6           0        3.115000   -0.104600   -1.012300
     10          1           0        3.996800   -0.738600   -1.101700
     11          6           0        3.426100    1.354700   -0.905000
     12          1           0        4.168600    1.511900   -0.115900
     13          1           0        2.556500    1.968400   -0.659700
     14          1           0        3.849600    1.714700   -1.847400
     15          6           0       -3.655400    1.357500    0.838200
     16          1           0       -4.184700    1.206900    1.784800
     17          1           0       -3.364600    2.412000    0.784600
     18          1           0       -4.350500    1.162200    0.015200
     19          6           0       -2.470100    0.431700    0.751800
     20          6           0       -2.819000   -1.029000    0.830700
     21          1           0       -3.207700   -1.269800    1.825400
     22          1           0       -1.971800   -1.688900    0.630700
     23          1           0       -3.590200   -1.271500    0.091500
     24          6           0       -1.224200    0.923100    0.604400
     25          1           0       -1.096300    2.003800    0.540800
     26          6           0        0.066500    0.151100    0.535000
     27          1           0        0.801300    0.666900    1.166700
     28          1           0       -0.041600   -0.848400    0.967800
 ---------------------------------------------------------------------
                    Distance matrix (angstroms):
                    1          2          3          4          5
     1  C    0.000000
     2  H    1.096539   0.000000
     3  H    1.098363   1.739570   0.000000
     4  C    1.514778   2.160692   2.140366   0.000000
     5  C    2.548913   3.439894   2.639986   1.507450   0.000000
     6  H    2.809547   3.625972   2.470043   2.148343   1.094940
     7  H    2.820767   3.865885   2.898935   2.150720   1.094463
     8  H    3.501504   4.282245   3.686062   2.173059   1.095126
     9  C    2.534049   2.711790   3.326585   1.347780   2.480539
    10  H    3.506632   3.774795   4.183371   2.099618   2.656556
    11  C    3.117278   2.782267   4.052223   2.551650   3.914503
    12  H    3.941014   3.709002   4.949651   3.279143   4.514405
    13  H    2.749519   2.175728   3.728284   2.757077   4.251295
    14  H    3.775173   3.265833   4.554329   3.210880   4.486938
    15  C    4.766489   4.864033   4.598442   6.197068   6.760934
    16  H    5.596177   5.785345   5.478552   6.952013   7.431524
    17  H    4.898285   4.765082   4.882367   6.363303   7.143163
    18  H    5.142724   5.217638   4.753783   6.596702   7.064002
    19  C    3.497176   3.836365   3.373098   4.836995   5.312287
    20  C    3.976334   4.623410   3.616680   5.070407   5.106700
    21  H    4.861410   5.532202   4.620942   5.862087   5.839460
    22  H    3.460982   4.304495   3.096560   4.315706   4.147208
    23  H    4.498311   5.081120   3.895546   5.626781   5.564321
    24  C    2.509509   2.723489   2.756202   3.861156   4.637036
    25  H    2.947684   2.748456   3.343322   4.310334   5.332289
    26  C    1.532091   2.167621   2.167831   2.529451   3.316733
    27  H    2.165975   2.527996   3.074857   2.775239   3.763273
    28  H    2.174195   3.078740   2.543744   2.762979   3.048706
                    6          7          8          9         10
     6  H    0.000000
     7  H    1.777553   0.000000
     8  H    1.766976   1.766263   0.000000
     9  C    3.191176   3.200693   2.611057   0.000000
    10  H    3.405862   3.420602   2.315679   1.089734   0.000000
    11  C    4.550510   4.549828   4.104750   1.495946   2.178599
    12  H    5.301936   5.024264   4.553046   2.127599   2.462939
    13  H    4.819245   4.756045   4.683706   2.175679   3.098012
    14  H    4.952792   5.281385   4.588737   2.132342   2.568349
    15  C    6.782562   6.387584   7.827601   7.169407   8.167803
    16  H    7.517118   6.927263   8.473792   7.926501   8.891220
    17  H    7.220731   6.880711   8.189067   7.179648   8.226458
    18  H    6.915185   6.751535   8.154844   7.641612   8.633535
    19  C    5.405658   4.892346   6.367231   5.881582   6.828313
    20  C    5.100209   4.487548   6.134939   6.282000   7.090390
    21  H    5.934480   5.080733   6.805767   7.027572   7.794543
    22  H    4.170664   3.456966   5.140491   5.575391   6.287167
    23  H    5.343882   5.034920   6.608649   6.894907   7.698719
    24  C    4.894091   4.374443   5.645000   4.743263   5.738542
    25  H    5.613632   5.212299   6.293950   4.959084   6.013172
    26  C    3.794111   3.075295   4.251473   3.428246   4.349438
    27  H    4.451118   3.558086   4.517766   3.270544   4.163207
    28  H    3.575341   2.466228   3.955709   3.799758   4.539115
                   11         12         13         14         15
    11  C    0.000000
    12  H    1.094850   0.000000
    13  H    1.092247   1.761527   0.000000
    14  H    1.094107   1.772281   1.774007   0.000000
    15  C    7.292900   7.883471   6.419081   7.979039   0.000000
    16  H    8.073484   8.572240   7.211050   8.831801   1.094939
    17  H    7.077163   7.640038   6.110827   7.710923   1.095175
    18  H    7.833220   8.527282   6.986565   8.427110   1.094822
    19  C    6.193714   6.781746   5.442471   6.952736   1.506488
    20  C    6.906226   7.495250   6.332590   7.692226   2.528834
    21  H    7.638742   8.118886   7.063120   8.497187   2.842130
    22  H    6.384293   6.964700   5.962087   7.184300   3.486849
    23  H    7.557672   8.245563   6.988789   8.247869   2.733762
    24  C    4.908142   5.472459   4.121200   5.690466   2.480746
    25  H    4.792053   5.328451   3.845179   5.499910   2.656152
    26  C    3.848268   4.370660   3.306053   4.736298   3.924267
    27  H    3.413881   3.701054   2.847870   4.413028   4.521838
    28  H    4.515083   4.946838   4.163321   5.443920   4.235840
                   16         17         18         19         20
    16  H    0.000000
    17  H    1.767832   0.000000
    18  H    1.777912   1.768043   0.000000
    19  C    2.146597   2.173199   2.147583   0.000000
    20  C    2.788313   3.484291   2.794976   1.503862   0.000000
    21  H    2.662747   3.829299   3.239975   2.142842   1.094760
    22  H    3.822896   4.333700   3.763751   2.181722   1.092344
    23  H    3.059928   3.754924   2.550838   2.142781   1.095432
    24  C    3.199757   2.613543   3.190310   1.347393   2.530868
    25  H    3.423565   2.317596   3.402112   2.098415   3.499945
    26  C    4.555153   4.116603   4.560965   2.561265   3.131483
    27  H    5.053102   4.532780   5.302105   3.305982   4.011925
    28  H    4.696491   4.658981   4.849389   2.753711   2.786640
                   21         22         23         24         25
    21  H    0.000000
    22  H    1.769294   0.000000
    23  H    1.775590   1.756183   0.000000
    24  C    3.199050   2.717010   3.267613   0.000000
    25  H    4.101788   3.796132   4.141135   1.090099   0.000000
    26  C    3.795323   2.747622   3.948663   1.505559   2.187381
    27  H    4.500753   3.677931   4.919220   2.117657   2.404150
    28  H    3.307151   2.132076   3.679603   2.160744   3.070792
                   26         27         28
    26  C    0.000000
    27  H    1.097737   0.000000
    28  H    1.094533   1.745330   0.000000
 Stoichiometry    C10H18
 Framework group  C1[X(C10H18)]
 Deg. of freedom    78
 Full point group                 C1      NOp   1
 Largest Abelian subgroup         C1      NOp   1
 Largest concise Abelian subgroup C1      NOp   1
                         Standard orientation:                         
 ---------------------------------------------------------------------
 Center     Atomic      Atomic             Coordinates (Angstroms)
 Number     Number       Type             X           Y           Z
 ---------------------------------------------------------------------
      1          6           0        0.745835   -0.045486    0.580353
      2          1           0        0.871570   -1.012067    1.082655
      3          1           0        0.286540    0.606541    1.335542
      4          6           0        2.090147    0.530320    0.185604
      5          6           0        2.144061    2.035376    0.119986
      6          1           0        1.893410    2.466923    1.094581
      7          1           0        1.432604    2.412362   -0.621337
      8          1           0        3.137215    2.403069   -0.158844
      9          6           0        3.189362   -0.206003   -0.071429
     10          1           0        4.114880    0.310463   -0.324801
     11          6           0        3.306937   -1.697317   -0.075115
     12          1           0        3.755068   -2.025146   -1.018727
     13          1           0        2.347606   -2.209966    0.024284
     14          1           0        3.958971   -2.020741    0.741780
     15          6           0       -3.933071   -0.920026    0.330479
     16          1           0       -4.707377   -0.789511   -0.432610
     17          1           0       -3.745720   -1.994179    0.432964
     18          1           0       -4.322211   -0.557746    1.287536
     19          6           0       -2.691978   -0.156354   -0.051620
     20          6           0       -2.901823    1.323952   -0.213663
     21          1           0       -3.548589    1.520238   -1.074863
     22          1           0       -1.972907    1.880930   -0.355467
     23          1           0       -3.383862    1.735098    0.679964
     24          6           0       -1.515342   -0.793347   -0.210481
     25          1           0       -1.481900   -1.870718   -0.047792
     26          6           0       -0.194785   -0.197052   -0.619466
     27          1           0        0.258359   -0.862946   -1.365302
     28          1           0       -0.329723    0.763020   -1.127458
 ---------------------------------------------------------------------
 Rotational constants (GHZ):           2.4778755           0.5324369           0.4581649
 Leave Link  202 at Fri Sep 17 14:57:52 2021, MaxMem=   524288000 cpu:               0.1 elap:               0.1
 (Enter /opt/gaussian/g16_legacy/l301.exe)
 Standard basis: 6-31G(d,p) (6D, 7F)
 Ernie: Thresh=  0.10000D-02 Tol=  0.10000D-05 Strict=F.
 There are   240 symmetry adapted cartesian basis functions of A   symmetry.
 There are   240 symmetry adapted basis functions of A   symmetry.
   240 basis functions,   406 primitive gaussians,   240 cartesian basis functions
    39 alpha electrons       39 beta electrons
       nuclear repulsion energy       513.2787587316 Hartrees.
 IExCor=    0 DFT=F Ex=HF Corr=None ExCW=0 ScaHFX=  1.000000
 ScaDFX=  1.000000  1.000000  1.000000  1.000000 ScalE2=  1.000000  1.000000
 IRadAn=      5 IRanWt=     -1 IRanGd=            0 ICorTp=0 IEmpDi=  4
 NAtoms=   28 NActive=   28 NUniq=   28 SFac= 1.00D+00 NAtFMM=   60 NAOKFM=F Big=F
 Integral buffers will be    131072 words long.
 Raffenetti 1 integral format.
 Two-electron integral symmetry is turned on.
 Leave Link  301 at Fri Sep 17 14:57:52 2021, MaxMem=   524288000 cpu:               0.1 elap:               0.2
 (Enter /opt/gaussian/g16_legacy/l302.exe)
 NPDir=0 NMtPBC=     1 NCelOv=     1 NCel=       1 NClECP=     1 NCelD=      1
         NCelK=      1 NCelE2=     1 NClLst=     1 CellRange=     0.0.
 One-electron integrals computed using PRISM.
 One-electron integral symmetry used in STVInt
 NBasis=   240 RedAO= T EigKep=  2.09D-03  NBF=   240
 NBsUse=   240 1.00D-06 EigRej= -1.00D+00 NBFU=   240
 Leave Link  302 at Fri Sep 17 14:57:53 2021, MaxMem=   524288000 cpu:               0.3 elap:               0.6
 (Enter /opt/gaussian/g16_legacy/l303.exe)
 DipDrv:  MaxL=1.
 Leave Link  303 at Fri Sep 17 14:57:53 2021, MaxMem=   524288000 cpu:               0.1 elap:               0.1
 (Enter /opt/gaussian/g16_legacy/l401.exe)
 ExpMin= 1.61D-01 ExpMax= 3.05D+03 ExpMxC= 4.57D+02 IAcc=3 IRadAn=         5 AccDes= 0.00D+00
 Harris functional with IExCor=  205 and IRadAn=       5 diagonalized for initial guess.
 HarFok:  IExCor=  205 AccDes= 0.00D+00 IRadAn=         5 IDoV= 1 UseB2=F ITyADJ=14
 ICtDFT=  3500011 ScaDFX=  1.000000  1.000000  1.000000  1.000000
 FoFCou: FMM=F IPFlag=           0 FMFlag=      100000 FMFlg1=           0
         NFxFlg=           0 DoJE=T BraDBF=F KetDBF=T FulRan=T
         wScrn=  0.000000 ICntrl=       500 IOpCl=  0 I1Cent=   200000004 NGrid=           0
         NMat0=    1 NMatS0=      1 NMatT0=    0 NMatD0=    1 NMtDS0=    0 NMtDT0=    0
 Petite list used in FoFCou.
 Harris En= -390.110078009557    
 JPrj=0 DoOrth=F DoCkMO=F.
 Leave Link  401 at Fri Sep 17 14:58:06 2021, MaxMem=   524288000 cpu:              12.6 elap:              12.8
 (Enter /opt/gaussian/g16_legacy/l502.exe)
 Keep R1 ints in memory in canonical form, NReq=425198025.
 FoFCou: FMM=F IPFlag=           0 FMFlag=           0 FMFlg1=           0
         NFxFlg=           0 DoJE=F BraDBF=F KetDBF=F FulRan=T
         wScrn=  0.000000 ICntrl=       600 IOpCl=  0 I1Cent=           0 NGrid=           0
         NMat0=    1 NMatS0=  28920 NMatT0=    0 NMatD0=    1 NMtDS0=    0 NMtDT0=    0
 Symmetry not used in FoFCou.
 Two-electron integral symmetry not used.
 Closed shell SCF:
 Using DIIS extrapolation, IDIIS=  1040.
 NGot=   524288000 LenX=   105970886 LenY=   105912845
 Requested convergence on RMS density matrix=1.00D-08 within 128 cycles.
 Requested convergence on MAX density matrix=1.00D-06.
 Requested convergence on             energy=1.00D-06.
 No special actions if energy rises.

 Cycle   1  Pass 1  IDiag  1:
 E= -388.532778377635    
 DIIS: error= 5.00D-02 at cycle   1 NSaved=   1.
 NSaved= 1 IEnMin= 1 EnMin= -388.532778377635     IErMin= 1 ErrMin= 5.00D-02
 ErrMax= 5.00D-02  0.00D+00 EMaxC= 1.00D-01 BMatC= 8.07D-01 BMatP= 8.07D-01
 IDIUse=3 WtCom= 5.00D-01 WtEn= 5.00D-01
 Coeff-Com:  0.100D+01
 Coeff-En:   0.100D+01
 Coeff:      0.100D+01
 Gap=     0.508 Goal=   None    Shift=    0.000
 GapD=    0.508 DampG=2.000 DampE=0.500 DampFc=1.0000 IDamp=-1.
 RMSDP=3.99D-03 MaxDP=1.15D-01              OVMax= 1.39D-01

 Cycle   2  Pass 1  IDiag  1:
 E= -389.074242119836     Delta-E=       -0.541463742201 Rises=F Damp=F
 DIIS: error= 1.46D-02 at cycle   2 NSaved=   2.
 NSaved= 2 IEnMin= 2 EnMin= -389.074242119836     IErMin= 2 ErrMin= 1.46D-02
 ErrMax= 1.46D-02  0.00D+00 EMaxC= 1.00D-01 BMatC= 8.63D-02 BMatP= 8.07D-01
 IDIUse=3 WtCom= 8.54D-01 WtEn= 1.46D-01
 Coeff-Com:  0.183D+00 0.817D+00
 Coeff-En:   0.000D+00 0.100D+01
 Coeff:      0.156D+00 0.844D+00
 Gap=     0.552 Goal=   None    Shift=    0.000
 RMSDP=1.62D-03 MaxDP=3.04D-02 DE=-5.41D-01 OVMax= 4.55D-02

 Cycle   3  Pass 1  IDiag  1:
 E= -389.151658398642     Delta-E=       -0.077416278806 Rises=F Damp=F
 DIIS: error= 2.67D-03 at cycle   3 NSaved=   3.
 NSaved= 3 IEnMin= 3 EnMin= -389.151658398642     IErMin= 3 ErrMin= 2.67D-03
 ErrMax= 2.67D-03  0.00D+00 EMaxC= 1.00D-01 BMatC= 3.01D-03 BMatP= 8.63D-02
 IDIUse=3 WtCom= 9.73D-01 WtEn= 2.67D-02
 Coeff-Com: -0.245D-01 0.102D+00 0.922D+00
 Coeff-En:   0.000D+00 0.000D+00 0.100D+01
 Coeff:     -0.239D-01 0.996D-01 0.924D+00
 Gap=     0.499 Goal=   None    Shift=    0.000
 RMSDP=2.54D-04 MaxDP=6.75D-03 DE=-7.74D-02 OVMax= 9.70D-03

 Cycle   4  Pass 1  IDiag  1:
 E= -389.155149843790     Delta-E=       -0.003491445148 Rises=F Damp=F
 DIIS: error= 4.95D-04 at cycle   4 NSaved=   4.
 NSaved= 4 IEnMin= 4 EnMin= -389.155149843790     IErMin= 4 ErrMin= 4.95D-04
 ErrMax= 4.95D-04  0.00D+00 EMaxC= 1.00D-01 BMatC= 9.59D-05 BMatP= 3.01D-03
 IDIUse=3 WtCom= 9.95D-01 WtEn= 4.95D-03
 Coeff-Com: -0.443D-02-0.835D-03 0.103D+00 0.903D+00
 Coeff-En:   0.000D+00 0.000D+00 0.000D+00 0.100D+01
 Coeff:     -0.440D-02-0.830D-03 0.102D+00 0.903D+00
 Gap=     0.500 Goal=   None    Shift=    0.000
 RMSDP=7.33D-05 MaxDP=1.75D-03 DE=-3.49D-03 OVMax= 3.51D-03

 Cycle   5  Pass 1  IDiag  1:
 E= -389.155275097548     Delta-E=       -0.000125253758 Rises=F Damp=F
 DIIS: error= 1.73D-04 at cycle   5 NSaved=   5.
 NSaved= 5 IEnMin= 5 EnMin= -389.155275097548     IErMin= 5 ErrMin= 1.73D-04
 ErrMax= 1.73D-04  0.00D+00 EMaxC= 1.00D-01 BMatC= 1.79D-05 BMatP= 9.59D-05
 IDIUse=3 WtCom= 9.98D-01 WtEn= 1.73D-03
 Coeff-Com:  0.248D-02-0.153D-01-0.106D+00 0.196D+00 0.923D+00
 Coeff-En:   0.000D+00 0.000D+00 0.000D+00 0.000D+00 0.100D+01
 Coeff:      0.247D-02-0.153D-01-0.105D+00 0.196D+00 0.923D+00
 Gap=     0.500 Goal=   None    Shift=    0.000
 RMSDP=3.09D-05 MaxDP=7.46D-04 DE=-1.25D-04 OVMax= 1.02D-03

 Cycle   6  Pass 1  IDiag  1:
 E= -389.155298720783     Delta-E=       -0.000023623236 Rises=F Damp=F
 DIIS: error= 3.73D-05 at cycle   6 NSaved=   6.
 NSaved= 6 IEnMin= 6 EnMin= -389.155298720783     IErMin= 6 ErrMin= 3.73D-05
 ErrMax= 3.73D-05  0.00D+00 EMaxC= 1.00D-01 BMatC= 5.51D-07 BMatP= 1.79D-05
 IDIUse=1 WtCom= 1.00D+00 WtEn= 0.00D+00
 Coeff-Com:  0.725D-03-0.330D-02-0.263D-01-0.272D-02 0.163D+00 0.868D+00
 Coeff:      0.725D-03-0.330D-02-0.263D-01-0.272D-02 0.163D+00 0.868D+00
 Gap=     0.500 Goal=   None    Shift=    0.000
 RMSDP=5.42D-06 MaxDP=1.67D-04 DE=-2.36D-05 OVMax= 3.13D-04

 Cycle   7  Pass 1  IDiag  1:
 E= -389.155299574477     Delta-E=       -0.000000853694 Rises=F Damp=F
 DIIS: error= 9.13D-06 at cycle   7 NSaved=   7.
 NSaved= 7 IEnMin= 7 EnMin= -389.155299574477     IErMin= 7 ErrMin= 9.13D-06
 ErrMax= 9.13D-06  0.00D+00 EMaxC= 1.00D-01 BMatC= 4.91D-08 BMatP= 5.51D-07
 IDIUse=1 WtCom= 1.00D+00 WtEn= 0.00D+00
 Coeff-Com: -0.555D-04 0.478D-03 0.325D-02-0.106D-01-0.462D-01 0.126D+00
 Coeff-Com:  0.927D+00
 Coeff:     -0.555D-04 0.478D-03 0.325D-02-0.106D-01-0.462D-01 0.126D+00
 Coeff:      0.927D+00
 Gap=     0.500 Goal=   None    Shift=    0.000
 RMSDP=1.70D-06 MaxDP=4.71D-05 DE=-8.54D-07 OVMax= 8.68D-05

 Cycle   8  Pass 1  IDiag  1:
 E= -389.155299659638     Delta-E=       -0.000000085161 Rises=F Damp=F
 DIIS: error= 2.98D-06 at cycle   8 NSaved=   8.
 NSaved= 8 IEnMin= 8 EnMin= -389.155299659638     IErMin= 8 ErrMin= 2.98D-06
 ErrMax= 2.98D-06  0.00D+00 EMaxC= 1.00D-01 BMatC= 4.91D-09 BMatP= 4.91D-08
 IDIUse=1 WtCom= 1.00D+00 WtEn= 0.00D+00
 Coeff-Com: -0.553D-04 0.226D-03 0.195D-02 0.331D-02-0.143D-01-0.848D-01
 Coeff-Com: -0.129D+00 0.122D+01
 Coeff:     -0.553D-04 0.226D-03 0.195D-02 0.331D-02-0.143D-01-0.848D-01
 Coeff:     -0.129D+00 0.122D+01
 Gap=     0.500 Goal=   None    Shift=    0.000
 RMSDP=7.76D-07 MaxDP=2.58D-05 DE=-8.52D-08 OVMax= 5.60D-05

 Cycle   9  Pass 1  IDiag  1:
 E= -389.155299674922     Delta-E=       -0.000000015285 Rises=F Damp=F
 DIIS: error= 1.35D-06 at cycle   9 NSaved=   9.
 NSaved= 9 IEnMin= 9 EnMin= -389.155299674922     IErMin= 9 ErrMin= 1.35D-06
 ErrMax= 1.35D-06  0.00D+00 EMaxC= 1.00D-01 BMatC= 6.52D-10 BMatP= 4.91D-09
 IDIUse=1 WtCom= 1.00D+00 WtEn= 0.00D+00
 Coeff-Com:  0.122D-04-0.776D-04-0.580D-03 0.123D-02 0.420D-02 0.523D-02
 Coeff-Com: -0.723D-01-0.196D+00 0.126D+01
 Coeff:      0.122D-04-0.776D-04-0.580D-03 0.123D-02 0.420D-02 0.523D-02
 Coeff:     -0.723D-01-0.196D+00 0.126D+01
 Gap=     0.500 Goal=   None    Shift=    0.000
 RMSDP=2.99D-07 MaxDP=1.28D-05 DE=-1.53D-08 OVMax= 2.62D-05

 Cycle  10  Pass 1  IDiag  1:
 E= -389.155299677156     Delta-E=       -0.000000002233 Rises=F Damp=F
 DIIS: error= 4.11D-07 at cycle  10 NSaved=  10.
 NSaved=10 IEnMin=10 EnMin= -389.155299677156     IErMin=10 ErrMin= 4.11D-07
 ErrMax= 4.11D-07  0.00D+00 EMaxC= 1.00D-01 BMatC= 8.50D-11 BMatP= 6.52D-10
 IDIUse=1 WtCom= 1.00D+00 WtEn= 0.00D+00
 Coeff-Com:  0.803D-05-0.368D-04-0.305D-03-0.200D-03 0.163D-02 0.134D-01
 Coeff-Com:  0.123D-01-0.192D+00 0.980D-01 0.107D+01
 Coeff:      0.803D-05-0.368D-04-0.305D-03-0.200D-03 0.163D-02 0.134D-01
 Coeff:      0.123D-01-0.192D+00 0.980D-01 0.107D+01
 Gap=     0.500 Goal=   None    Shift=    0.000
 RMSDP=1.08D-07 MaxDP=3.32D-06 DE=-2.23D-09 OVMax= 8.53D-06

 Cycle  11  Pass 1  IDiag  1:
 E= -389.155299677387     Delta-E=       -0.000000000231 Rises=F Damp=F
 DIIS: error= 1.55D-07 at cycle  11 NSaved=  11.
 NSaved=11 IEnMin=11 EnMin= -389.155299677387     IErMin=11 ErrMin= 1.55D-07
 ErrMax= 1.55D-07  0.00D+00 EMaxC= 1.00D-01 BMatC= 5.89D-12 BMatP= 8.50D-11
 IDIUse=1 WtCom= 1.00D+00 WtEn= 0.00D+00
 Coeff-Com: -0.509D-06 0.459D-05 0.337D-04-0.107D-03-0.456D-03 0.985D-03
 Coeff-Com:  0.873D-02 0.494D-02-0.107D+00 0.926D-01 0.100D+01
 Coeff:     -0.509D-06 0.459D-05 0.337D-04-0.107D-03-0.456D-03 0.985D-03
 Coeff:      0.873D-02 0.494D-02-0.107D+00 0.926D-01 0.100D+01
 Gap=     0.500 Goal=   None    Shift=    0.000
 RMSDP=2.30D-08 MaxDP=1.01D-06 DE=-2.31D-10 OVMax= 2.03D-06

 Cycle  12  Pass 1  IDiag  1:
 E= -389.155299677423     Delta-E=       -0.000000000036 Rises=F Damp=F
 DIIS: error= 4.41D-08 at cycle  12 NSaved=  12.
 NSaved=12 IEnMin=12 EnMin= -389.155299677423     IErMin=12 ErrMin= 4.41D-08
 ErrMax= 4.41D-08  0.00D+00 EMaxC= 1.00D-01 BMatC= 9.46D-13 BMatP= 5.89D-12
 IDIUse=1 WtCom= 1.00D+00 WtEn= 0.00D+00
 Coeff-Com: -0.946D-06 0.495D-05 0.398D-04 0.175D-05-0.291D-03-0.124D-02
 Coeff-Com:  0.338D-03 0.206D-01-0.365D-01-0.106D+00 0.192D+00 0.931D+00
 Coeff:     -0.946D-06 0.495D-05 0.398D-04 0.175D-05-0.291D-03-0.124D-02
 Coeff:      0.338D-03 0.206D-01-0.365D-01-0.106D+00 0.192D+00 0.931D+00
 Gap=     0.500 Goal=   None    Shift=    0.000
 RMSDP=9.74D-09 MaxDP=2.60D-07 DE=-3.58D-11 OVMax= 6.38D-07

 SCF Done:  E(RHF) =  -389.155299677     A.U. after   12 cycles
            NFock= 12  Conv=0.97D-08     -V/T= 2.0014
 KE= 3.886248521073D+02 PE=-1.931192194652D+03 EE= 6.401332841357D+02
 Leave Link  502 at Fri Sep 17 14:58:39 2021, MaxMem=   524288000 cpu:              32.8 elap:              33.0
 (Enter /opt/gaussian/g16_legacy/l801.exe)
 ExpMin= 1.61D-01 ExpMax= 3.05D+03 ExpMxC= 4.57D+02 IAcc=3 IRadAn=         5 AccDes= 0.00D+00
 HarFok:  IExCor=  205 AccDes= 0.00D+00 IRadAn=         5 IDoV=-2 UseB2=F ITyADJ=14
 ICtDFT= 12500011 ScaDFX=  1.000000  1.000000  1.000000  1.000000
 Largest valence mixing into a core orbital is  1.97D-04
 Largest core mixing into a valence orbital is  3.51D-05
 Range of M.O.s used for correlation:    11   240
 NBasis=   240 NAE=    39 NBE=    39 NFC=    10 NFV=     0
 NROrb=    230 NOA=    29 NOB=    29 NVA=   201 NVB=   201
 Leave Link  801 at Fri Sep 17 14:58:41 2021, MaxMem=   524288000 cpu:               1.6 elap:               1.9
 (Enter /opt/gaussian/g16_legacy/l906.exe)
 Frozen-core derivative calculation, NFC=  10 NFV=   0.
 FulOut=F Deriv=T AODrv=T NAtomX=    28
   MMem=          89  MDisk=          29 MDiskD=          29
  W3Min=     2246400 MinDsk=     2795480 NBas6D=         240
 NBas2D=       29244    NTT=       28920    LW2=     2040000
    MDV=   523629461 MDiskM=       30186 NBas2p=       24099
 Fully direct method using O(ONN) memory.
 IMap=   1   2   3   4   5   6   7   8   9  10  11  12  13  14  15  16  17  18  19  20
 IMap=  21  22  23  24  25  26  27  28  29  30  31  32  33  34  35  36  37  38  39
 JobTyp=1 Pass  1:  I=  11 to  39 NPSUse=  1 ParTrn=F ParDer=F DoDerP=T.
 Spin components of T(2) and E(2):
     alpha-alpha T2 =       0.5711530878D-01 E2=     -0.1637345126D+00
     alpha-beta  T2 =       0.3617416815D+00 E2=     -0.1089191775D+01
     beta-beta   T2 =       0.5711530878D-01 E2=     -0.1637345126D+00
 The integrals were generated   1 times.
 ANorm=    0.1214896003D+01
 E2 =    -0.1416660800D+01 EUMP2 =    -0.39057196047706D+03
 Leave Link  906 at Fri Sep 17 15:02:56 2021, MaxMem=   524288000 cpu:             254.2 elap:             255.1
 (Enter /opt/gaussian/g16_legacy/l1002.exe)
 Minotr:  Closed shell wavefunction.
          Computing MP2/KS-MP2 derivatives.
          Using Z-Vector for PSCF gradient.
          Skipping F1 and S1 gradient terms here.
          IDoAtm=1111111111111111111111111111
          Frozen-core window.
          Direct CPHF calculation.
          Differentiating once with respect to electric field.
                with respect to dipole field.
          Differentiating once with respect to nuclear coordinates.
          Requested convergence is 1.0D-10 RMS, and 1.0D-09 maximum.
          NewPWx=F KeepS1=T KeepF1=T KeepIn=T MapXYZ=F SortEE=F KeepMc=T.
 Keep R1 ints in memory in canonical form, NReq=425201067.
 FoFCou: FMM=F IPFlag=           0 FMFlag=           0 FMFlg1=           0
         NFxFlg=           0 DoJE=F BraDBF=F KetDBF=F FulRan=T
         wScrn=  0.000000 ICntrl=       600 IOpCl=  0 I1Cent=           0 NGrid=           0
         NMat0=    1 NMatS0=  28920 NMatT0=    0 NMatD0=    1 NMtDS0=    0 NMtDT0=    0
 Symmetry not used in FoFCou.
 Two-electron integral symmetry not used.
          MDV=     524288000 using IRadAn=       5.
          Solving linear equations separately, MaxMat=       0.
          There are     1 degrees of freedom in the 1st order CPHF.  IDoFFX=0 NUNeed=     1.
 LinEq1:  Iter=  0 NonCon=     1 RMS=2.55D-03 Max=4.26D-02 NDo=     1
 AX will form     1 AO Fock derivatives at one time.
 LinEq1:  Iter=  1 NonCon=     1 RMS=6.89D-04 Max=1.12D-02 NDo=     1
 LinEq1:  Iter=  2 NonCon=     1 RMS=1.61D-04 Max=4.13D-03 NDo=     1
 LinEq1:  Iter=  3 NonCon=     1 RMS=4.42D-05 Max=5.11D-04 NDo=     1
 LinEq1:  Iter=  4 NonCon=     1 RMS=1.99D-05 Max=8.26D-04 NDo=     1
 LinEq1:  Iter=  5 NonCon=     1 RMS=4.81D-06 Max=8.80D-05 NDo=     1
 LinEq1:  Iter=  6 NonCon=     1 RMS=1.45D-06 Max=2.33D-05 NDo=     1
 LinEq1:  Iter=  7 NonCon=     1 RMS=4.00D-07 Max=4.14D-06 NDo=     1
 LinEq1:  Iter=  8 NonCon=     1 RMS=8.45D-08 Max=1.47D-06 NDo=     1
 LinEq1:  Iter=  9 NonCon=     1 RMS=2.22D-08 Max=5.48D-07 NDo=     1
 LinEq1:  Iter= 10 NonCon=     1 RMS=7.41D-09 Max=1.95D-07 NDo=     1
 LinEq1:  Iter= 11 NonCon=     1 RMS=2.36D-09 Max=7.30D-08 NDo=     1
 LinEq1:  Iter= 12 NonCon=     1 RMS=8.59D-10 Max=1.37D-08 NDo=     1
 LinEq1:  Iter= 13 NonCon=     1 RMS=2.39D-10 Max=3.42D-09 NDo=     1
 LinEq1:  Iter= 14 NonCon=     0 RMS=5.52D-11 Max=6.92D-10 NDo=     1
 Linear equations converged to 1.000D-10 1.000D-09 after    14 iterations.
 End of Minotr F.D. properties file   721 does not exist.
 End of Minotr F.D. properties file   722 does not exist.
 End of Minotr F.D. properties file   788 does not exist.
 Leave Link 1002 at Fri Sep 17 15:03:41 2021, MaxMem=   524288000 cpu:              44.1 elap:              44.3
 (Enter /opt/gaussian/g16_legacy/l601.exe)
 Copying SCF densities to generalized density rwf, IOpCl= 0 IROHF=0.

 **********************************************************************

            Population analysis using the SCF density.

 **********************************************************************

 Orbital symmetries:
       Occupied  (A) (A) (A) (A) (A) (A) (A) (A) (A) (A) (A) (A)
                 (A) (A) (A) (A) (A) (A) (A) (A) (A) (A) (A) (A)
                 (A) (A) (A) (A) (A) (A) (A) (A) (A) (A) (A) (A)
                 (A) (A) (A)
       Virtual   (A) (A) (A) (A) (A) (A) (A) (A) (A) (A) (A) (A)
                 (A) (A) (A) (A) (A) (A) (A) (A) (A) (A) (A) (A)
                 (A) (A) (A) (A) (A) (A) (A) (A) (A) (A) (A) (A)
                 (A) (A) (A) (A) (A) (A) (A) (A) (A) (A) (A) (A)
                 (A) (A) (A) (A) (A) (A) (A) (A) (A) (A) (A) (A)
                 (A) (A) (A) (A) (A) (A) (A) (A) (A) (A) (A) (A)
                 (A) (A) (A) (A) (A) (A) (A) (A) (A) (A) (A) (A)
                 (A) (A) (A) (A) (A) (A) (A) (A) (A) (A) (A) (A)
                 (A) (A) (A) (A) (A) (A) (A) (A) (A) (A) (A) (A)
                 (A) (A) (A) (A) (A) (A) (A) (A) (A) (A) (A) (A)
                 (A) (A) (A) (A) (A) (A) (A) (A) (A) (A) (A) (A)
                 (A) (A) (A) (A) (A) (A) (A) (A) (A) (A) (A) (A)
                 (A) (A) (A) (A) (A) (A) (A) (A) (A) (A) (A) (A)
                 (A) (A) (A) (A) (A) (A) (A) (A) (A) (A) (A) (A)
                 (A) (A) (A) (A) (A) (A) (A) (A) (A) (A) (A) (A)
                 (A) (A) (A) (A) (A) (A) (A) (A) (A) (A) (A) (A)
                 (A) (A) (A) (A) (A) (A) (A) (A) (A)
 The electronic state is 1-A.
 Alpha  occ. eigenvalues --  -11.23059 -11.22491 -11.21994 -11.21919 -11.21893
 Alpha  occ. eigenvalues --  -11.21649 -11.21538 -11.21498 -11.21456 -11.21435
 Alpha  occ. eigenvalues --   -1.10614  -1.08328  -1.01891  -0.98025  -0.93648
 Alpha  occ. eigenvalues --   -0.91775  -0.86738  -0.82690  -0.70609  -0.69412
 Alpha  occ. eigenvalues --   -0.64401  -0.61335  -0.60398  -0.59008  -0.58077
 Alpha  occ. eigenvalues --   -0.56880  -0.55469  -0.55041  -0.53554  -0.51978
 Alpha  occ. eigenvalues --   -0.51778  -0.51261  -0.50451  -0.49763  -0.47237
 Alpha  occ. eigenvalues --   -0.46643  -0.44233  -0.33254  -0.31612
 Alpha virt. eigenvalues --    0.18419   0.19608   0.22268   0.24509   0.24868
 Alpha virt. eigenvalues --    0.27280   0.28582   0.29021   0.30343   0.30571
 Alpha virt. eigenvalues --    0.31453   0.32295   0.32994   0.33606   0.33919
 Alpha virt. eigenvalues --    0.34862   0.36107   0.37175   0.38360   0.39994
 Alpha virt. eigenvalues --    0.40806   0.41939   0.42663   0.44320   0.45310
 Alpha virt. eigenvalues --    0.51885   0.54070   0.61043   0.62386   0.69420
 Alpha virt. eigenvalues --    0.71419   0.71711   0.74323   0.75991   0.76599
 Alpha virt. eigenvalues --    0.77888   0.78837   0.80149   0.80437   0.82525
 Alpha virt. eigenvalues --    0.82864   0.85808   0.89229   0.90310   0.92127
 Alpha virt. eigenvalues --    0.93067   0.94945   0.96558   0.97592   0.99409
 Alpha virt. eigenvalues --    0.99665   1.01112   1.02715   1.04774   1.06343
 Alpha virt. eigenvalues --    1.07247   1.08350   1.08464   1.10885   1.12202
 Alpha virt. eigenvalues --    1.13083   1.13495   1.14142   1.15109   1.15429
 Alpha virt. eigenvalues --    1.15975   1.16405   1.17991   1.18285   1.20094
 Alpha virt. eigenvalues --    1.20923   1.22026   1.22906   1.24890   1.26885
 Alpha virt. eigenvalues --    1.29778   1.39910   1.40850   1.44072   1.45166
 Alpha virt. eigenvalues --    1.46115   1.53924   1.55258   1.57486   1.59002
 Alpha virt. eigenvalues --    1.61320   1.62902   1.65441   1.68692   1.70717
 Alpha virt. eigenvalues --    1.74995   1.83305   1.90944   1.92634   1.95892
 Alpha virt. eigenvalues --    1.98116   2.01342   2.02513   2.04962   2.08419
 Alpha virt. eigenvalues --    2.09276   2.11239   2.11878   2.13549   2.13762
 Alpha virt. eigenvalues --    2.15746   2.17936   2.19180   2.23539   2.27677
 Alpha virt. eigenvalues --    2.27930   2.30152   2.32119   2.34934   2.35557
 Alpha virt. eigenvalues --    2.35640   2.35787   2.39416   2.39802   2.40231
 Alpha virt. eigenvalues --    2.41256   2.41851   2.42903   2.44989   2.45575
 Alpha virt. eigenvalues --    2.47188   2.49014   2.49668   2.49767   2.53206
 Alpha virt. eigenvalues --    2.56184   2.58403   2.60485   2.62610   2.64597
 Alpha virt. eigenvalues --    2.66045   2.67902   2.71568   2.72559   2.74078
 Alpha virt. eigenvalues --    2.76099   2.77698   2.81002   2.82554   2.84079
 Alpha virt. eigenvalues --    2.86959   2.90354   2.92352   2.93719   2.93886
 Alpha virt. eigenvalues --    2.97260   2.98947   3.00900   3.02347   3.04613
 Alpha virt. eigenvalues --    3.06572   3.07049   3.09533   3.11568   3.16241
 Alpha virt. eigenvalues --    3.17179   3.17510   3.19754   3.20515   3.20977
 Alpha virt. eigenvalues --    3.22295   3.25238   3.26474   3.27447   3.37024
 Alpha virt. eigenvalues --    3.39007   3.44386   3.45750   3.55491   3.57322
 Alpha virt. eigenvalues --    3.58499   3.60445   3.67989   3.73339   3.78358
 Alpha virt. eigenvalues --    3.78766   3.80296   3.81207   3.82242   3.82870
 Alpha virt. eigenvalues --    3.83545   3.85741   3.87955   3.89119   3.90872
 Alpha virt. eigenvalues --    3.96058   4.59176   4.62294   4.74495   4.82467
 Alpha virt. eigenvalues --    4.89197   4.92416   4.93233   5.07345   5.10306
 Alpha virt. eigenvalues --    5.16931
          Condensed to atoms (all electrons):
               1          2          3          4          5          6
     1  C    5.000762   0.414390   0.412395   0.339577  -0.058817  -0.003457
     2  H    0.414390   0.576718  -0.030331  -0.040669   0.003305  -0.000014
     3  H    0.412395  -0.030331   0.583786  -0.045112  -0.004632   0.002508
     4  C    0.339577  -0.040669  -0.045112   4.957310   0.350748  -0.043211
     5  C   -0.058817   0.003305  -0.004632   0.350748   4.895119   0.397607
     6  H   -0.003457  -0.000014   0.002508  -0.043211   0.397607   0.593363
     7  H   -0.000423  -0.000036  -0.000305  -0.046051   0.399664  -0.035164
     8  H    0.003653  -0.000107   0.000092  -0.041416   0.406599  -0.027591
     9  C   -0.043514  -0.002306   0.001833   0.696630  -0.045824  -0.000478
    10  H    0.003081   0.000055  -0.000112  -0.036445  -0.006440   0.000245
    11  C   -0.007011  -0.002042   0.000131  -0.050644   0.003399  -0.000113
    12  H    0.000233  -0.000035  -0.000010   0.000512  -0.000102  -0.000004
    13  H   -0.002040  -0.001243   0.000011  -0.000449   0.000090  -0.000001
    14  H    0.000216   0.000157   0.000029  -0.001299  -0.000114   0.000021
    15  C   -0.000105  -0.000001  -0.000032   0.000001  -0.000000   0.000000
    16  H   -0.000004   0.000000   0.000001   0.000000  -0.000000  -0.000000
    17  H   -0.000002   0.000002  -0.000002   0.000000  -0.000000  -0.000000
    18  H    0.000021  -0.000001  -0.000005  -0.000000   0.000000  -0.000000
    19  C   -0.002758   0.000602   0.000933  -0.000035   0.000007  -0.000001
    20  C    0.000487  -0.000011   0.000129  -0.000018  -0.000017  -0.000002
    21  H   -0.000041  -0.000000   0.000012   0.000001  -0.000000   0.000000
    22  H    0.000080  -0.000011   0.000148  -0.000063   0.000095   0.000005
    23  H    0.000071  -0.000000  -0.000066  -0.000002   0.000000   0.000000
    24  C   -0.062588  -0.001371  -0.000486   0.006102  -0.000075   0.000000
    25  H   -0.000349   0.001131   0.000186  -0.000118  -0.000002   0.000000
    26  C    0.325381  -0.041384  -0.042896  -0.056892  -0.000803   0.000024
    27  H   -0.045281  -0.002680   0.004395  -0.001366   0.000304   0.000006
    28  H   -0.040030   0.004046  -0.002358  -0.002268  -0.000487   0.000076
               7          8          9         10         11         12
     1  C   -0.000423   0.003653  -0.043514   0.003081  -0.007011   0.000233
     2  H   -0.000036  -0.000107  -0.002306   0.000055  -0.002042  -0.000035
     3  H   -0.000305   0.000092   0.001833  -0.000112   0.000131  -0.000010
     4  C   -0.046051  -0.041416   0.696630  -0.036445  -0.050644   0.000512
     5  C    0.399664   0.406599  -0.045824  -0.006440   0.003399  -0.000102
     6  H   -0.035164  -0.027591  -0.000478   0.000245  -0.000113  -0.000004
     7  H    0.598045  -0.028119  -0.000963   0.000130  -0.000102   0.000015
     8  H   -0.028119   0.570211  -0.002765   0.002175   0.000140  -0.000008
     9  C   -0.000963  -0.002765   4.940028   0.404567   0.338340  -0.042714
    10  H    0.000130   0.002175   0.404567   0.559860  -0.043628  -0.002623
    11  C   -0.000102   0.000140   0.338340  -0.043628   4.903486   0.402919
    12  H    0.000015  -0.000008  -0.042714  -0.002623   0.402919   0.585824
    13  H    0.000001   0.000004  -0.041986   0.003343   0.408024  -0.029454
    14  H   -0.000005  -0.000004  -0.044531  -0.000243   0.400276  -0.033317
    15  C   -0.000000   0.000000  -0.000000   0.000000   0.000000  -0.000000
    16  H    0.000000   0.000000  -0.000000   0.000000  -0.000000  -0.000000
    17  H   -0.000000  -0.000000   0.000000   0.000000  -0.000000   0.000000
    18  H    0.000000  -0.000000   0.000000  -0.000000  -0.000000   0.000000
    19  C    0.000017  -0.000000  -0.000002   0.000000   0.000000   0.000000
    20  C   -0.000029   0.000000  -0.000000  -0.000000  -0.000000  -0.000000
    21  H   -0.000000   0.000000   0.000000   0.000000   0.000000  -0.000000
    22  H    0.000222  -0.000001  -0.000001   0.000000  -0.000000   0.000000
    23  H   -0.000001  -0.000000   0.000000  -0.000000   0.000000   0.000000
    24  C   -0.000082   0.000002  -0.000010   0.000002  -0.000022  -0.000002
    25  H   -0.000000   0.000000   0.000009  -0.000000  -0.000002  -0.000000
    26  C    0.000832  -0.000094  -0.003334  -0.000120   0.000493   0.000079
    27  H    0.000016  -0.000006   0.000947  -0.000032   0.000105  -0.000059
    28  H   -0.000581  -0.000024   0.000498   0.000002  -0.000024   0.000000
              13         14         15         16         17         18
     1  C   -0.002040   0.000216  -0.000105  -0.000004  -0.000002   0.000021
     2  H   -0.001243   0.000157  -0.000001   0.000000   0.000002  -0.000001
     3  H    0.000011   0.000029  -0.000032   0.000001  -0.000002  -0.000005
     4  C   -0.000449  -0.001299   0.000001   0.000000   0.000000  -0.000000
     5  C    0.000090  -0.000114  -0.000000  -0.000000  -0.000000   0.000000
     6  H   -0.000001   0.000021   0.000000  -0.000000  -0.000000  -0.000000
     7  H    0.000001  -0.000005  -0.000000   0.000000  -0.000000   0.000000
     8  H    0.000004  -0.000004   0.000000   0.000000  -0.000000  -0.000000
     9  C   -0.041986  -0.044531  -0.000000  -0.000000   0.000000   0.000000
    10  H    0.003343  -0.000243   0.000000   0.000000   0.000000  -0.000000
    11  C    0.408024   0.400276   0.000000  -0.000000  -0.000000  -0.000000
    12  H   -0.029454  -0.033317  -0.000000  -0.000000   0.000000   0.000000
    13  H    0.575215  -0.027465  -0.000000   0.000000   0.000000  -0.000000
    14  H   -0.027465   0.585275   0.000000   0.000000  -0.000000  -0.000000
    15  C   -0.000000   0.000000   4.903454   0.399277   0.405370   0.397002
    16  H    0.000000   0.000000   0.399277   0.593110  -0.027573  -0.034898
    17  H    0.000000  -0.000000   0.405370  -0.027573   0.568089  -0.027349
    18  H   -0.000000  -0.000000   0.397002  -0.034898  -0.027349   0.594212
    19  C    0.000001  -0.000000   0.351809  -0.045810  -0.040406  -0.044204
    20  C    0.000000   0.000000  -0.065372  -0.001092   0.003697  -0.002145
    21  H    0.000000   0.000000  -0.001680   0.002542  -0.000080  -0.000367
    22  H    0.000000  -0.000000   0.003707  -0.000024  -0.000109  -0.000072
    23  H   -0.000000  -0.000000  -0.003424  -0.000508   0.000012   0.002838
    24  C    0.000034   0.000002  -0.044528  -0.001111  -0.002346  -0.000623
    25  H    0.000035  -0.000000  -0.006705   0.000153   0.002203   0.000223
    26  C   -0.000174  -0.000045   0.003141  -0.000123   0.000141  -0.000086
    27  H    0.000114   0.000018  -0.000098   0.000012  -0.000011  -0.000002
    28  H   -0.000005  -0.000000   0.000062   0.000004   0.000006  -0.000003
              19         20         21         22         23         24
     1  C   -0.002758   0.000487  -0.000041   0.000080   0.000071  -0.062588
     2  H    0.000602  -0.000011  -0.000000  -0.000011  -0.000000  -0.001371
     3  H    0.000933   0.000129   0.000012   0.000148  -0.000066  -0.000486
     4  C   -0.000035  -0.000018   0.000001  -0.000063  -0.000002   0.006102
     5  C    0.000007  -0.000017  -0.000000   0.000095   0.000000  -0.000075
     6  H   -0.000001  -0.000002   0.000000   0.000005   0.000000   0.000000
     7  H    0.000017  -0.000029  -0.000000   0.000222  -0.000001  -0.000082
     8  H   -0.000000   0.000000   0.000000  -0.000001  -0.000000   0.000002
     9  C   -0.000002  -0.000000   0.000000  -0.000001   0.000000  -0.000010
    10  H    0.000000  -0.000000   0.000000   0.000000  -0.000000   0.000002
    11  C    0.000000  -0.000000   0.000000  -0.000000   0.000000  -0.000022
    12  H    0.000000  -0.000000  -0.000000   0.000000   0.000000  -0.000002
    13  H    0.000001   0.000000   0.000000   0.000000  -0.000000   0.000034
    14  H   -0.000000   0.000000   0.000000  -0.000000  -0.000000   0.000002
    15  C    0.351809  -0.065372  -0.001680   0.003707  -0.003424  -0.044528
    16  H   -0.045810  -0.001092   0.002542  -0.000024  -0.000508  -0.001111
    17  H   -0.040406   0.003697  -0.000080  -0.000109   0.000012  -0.002346
    18  H   -0.044204  -0.002145  -0.000367  -0.000072   0.002838  -0.000623
    19  C    4.920208   0.348923  -0.043923  -0.036967  -0.043839   0.695500
    20  C    0.348923   4.906823   0.398573   0.405952   0.402440  -0.043602
    21  H   -0.043923   0.398573   0.583075  -0.026878  -0.033087  -0.000743
    22  H   -0.036967   0.405952  -0.026878   0.570714  -0.029641  -0.002889
    23  H   -0.043839   0.402440  -0.033087  -0.029641   0.585550   0.000408
    24  C    0.695500  -0.043602  -0.000743  -0.002889   0.000408   4.962260
    25  H   -0.035972   0.003360  -0.000124   0.000053  -0.000112   0.403013
    26  C   -0.048862  -0.007185   0.000191  -0.002349   0.000276   0.341683
    27  H    0.000972   0.000145   0.000033   0.000041  -0.000012  -0.043999
    28  H    0.000559  -0.001879   0.000040  -0.001474  -0.000035  -0.043140
              25         26         27         28
     1  C   -0.000349   0.325381  -0.045281  -0.040030
     2  H    0.001131  -0.041384  -0.002680   0.004046
     3  H    0.000186  -0.042896   0.004395  -0.002358
     4  C   -0.000118  -0.056892  -0.001366  -0.002268
     5  C   -0.000002  -0.000803   0.000304  -0.000487
     6  H    0.000000   0.000024   0.000006   0.000076
     7  H   -0.000000   0.000832   0.000016  -0.000581
     8  H    0.000000  -0.000094  -0.000006  -0.000024
     9  C    0.000009  -0.003334   0.000947   0.000498
    10  H   -0.000000  -0.000120  -0.000032   0.000002
    11  C   -0.000002   0.000493   0.000105  -0.000024
    12  H   -0.000000   0.000079  -0.000059   0.000000
    13  H    0.000035  -0.000174   0.000114  -0.000005
    14  H   -0.000000  -0.000045   0.000018  -0.000000
    15  C   -0.006705   0.003141  -0.000098   0.000062
    16  H    0.000153  -0.000123   0.000012   0.000004
    17  H    0.002203   0.000141  -0.000011   0.000006
    18  H    0.000223  -0.000086  -0.000002  -0.000003
    19  C   -0.035972  -0.048862   0.000972   0.000559
    20  C    0.003360  -0.007185   0.000145  -0.001879
    21  H   -0.000124   0.000191   0.000033   0.000040
    22  H    0.000053  -0.002349   0.000041  -0.001474
    23  H   -0.000112   0.000276  -0.000012  -0.000035
    24  C    0.403013   0.341683  -0.043999  -0.043140
    25  H    0.558246  -0.041949  -0.003529   0.003304
    26  C   -0.041949   4.978465   0.415015   0.414994
    27  H   -0.003529   0.415015   0.581186  -0.029794
    28  H    0.003304   0.414994  -0.029794   0.579635
 Mulliken charges:
               1
     1  C   -0.233928
     2  H    0.121836
     3  H    0.119759
     4  C    0.015177
     5  C   -0.339625
     6  H    0.116179
     7  H    0.112916
     8  H    0.117258
     9  C   -0.154424
    10  H    0.116183
    11  C   -0.353726
    12  H    0.118748
    13  H    0.115946
    14  H    0.121031
    15  C   -0.341878
    16  H    0.116044
    17  H    0.118357
    18  H    0.115459
    19  C    0.023247
    20  C   -0.349177
    21  H    0.122455
    22  H    0.119460
    23  H    0.119133
    24  C   -0.161389
    25  H    0.116947
    26  C   -0.234421
    27  H    0.123561
    28  H    0.118875
 Sum of Mulliken charges =  -0.00000
 Mulliken charges with hydrogens summed into heavy atoms:
               1
     1  C    0.007667
     4  C    0.015177
     5  C    0.006728
     9  C   -0.038241
    11  C    0.001999
    15  C    0.007981
    19  C    0.023247
    20  C    0.011871
    24  C   -0.044443
    26  C    0.008014
 Electronic spatial extent (au):  <R**2>=           2544.9843
 Charge=             -0.0000 electrons
 Dipole moment (field-independent basis, Debye):
    X=             -0.3494    Y=              0.1467    Z=              0.0262  Tot=              0.3798
 Quadrupole moment (field-independent basis, Debye-Ang):
   XX=            -63.8824   YY=            -63.9184   ZZ=            -67.2160
   XY=             -0.9689   XZ=             -0.9085   YZ=             -0.2410
 Traceless Quadrupole moment (field-independent basis, Debye-Ang):
   XX=              1.1232   YY=              1.0872   ZZ=             -2.2104
   XY=             -0.9689   XZ=             -0.9085   YZ=             -0.2410
 Octapole moment (field-independent basis, Debye-Ang**2):
  XXX=             -0.9321  YYY=             -2.8091  ZZZ=              0.8880  XYY=              0.2818
  XXY=              1.7972  XXZ=             -2.7130  XZZ=             -1.8074  YZZ=              1.3753
  YYZ=              0.5284  XYZ=              0.3790
 Hexadecapole moment (field-independent basis, Debye-Ang**3):
 XXXX=          -2708.1173 YYYY=           -641.3332 ZZZZ=           -161.4611 XXXY=             -7.6914
 XXXZ=            -11.8695 YYYX=              8.1724 YYYZ=             -1.4947 ZZZX=             -2.8115
 ZZZY=              1.9615 XXYY=           -565.0342 XXZZ=           -492.0510 YYZZ=           -130.8302
 XXYZ=             -3.0932 YYXZ=             -1.7782 ZZXY=             -8.1546
 N-N= 5.132787587316D+02 E-N=-1.931192193646D+03  KE= 3.886248521073D+02
 No NMR shielding tensors so no spin-rotation constants.
 Leave Link  601 at Fri Sep 17 15:03:41 2021, MaxMem=   524288000 cpu:               0.3 elap:               0.4
 (Enter /opt/gaussian/g16_legacy/l701.exe)
 ... and contract with generalized density number  2.
 Compute integral first derivatives.
 Leave Link  701 at Fri Sep 17 15:03:42 2021, MaxMem=   524288000 cpu:               0.3 elap:               0.3
 (Enter /opt/gaussian/g16_legacy/l702.exe)
 L702 exits ... SP integral derivatives will be done elsewhere.
 Leave Link  702 at Fri Sep 17 15:03:42 2021, MaxMem=   524288000 cpu:               0.1 elap:               0.1
 (Enter /opt/gaussian/g16_legacy/l703.exe)
 Integral derivatives from FoFJK, PRISM(SPDF).
 Compute integral first derivatives, UseDBF=F ICtDFT=           0.
 Calling FoFJK, ICntrl=  10002127 FMM=F ISym2X=0 I1Cent= 0 IOpClX= 0 NMat=1 NMatS=1 NMatT=0.
 FoFJK:  IHMeth= 1 ICntrl=10002127 DoSepK=F KAlg= 0 I1Cent=           0 FoldK=F
 IRaf=         0 NMat=       1 IRICut=       1 DoRegI=T DoRafI=F ISym2E= 0 IDoP0=0 IntGTp=1.
 FoFCou: FMM=F IPFlag=           0 FMFlag=      100000 FMFlg1=         800
         NFxFlg=           0 DoJE=F BraDBF=F KetDBF=F FulRan=T
         wScrn=  0.000000 ICntrl=  10002127 IOpCl=  0 I1Cent=           0 NGrid=           0
         NMat0=    1 NMatS0=      1 NMatT0=    0 NMatD0=    1 NMtDS0=    0 NMtDT0=    0
 Symmetry not used in FoFCou.
 Leave Link  703 at Fri Sep 17 15:04:18 2021, MaxMem=   524288000 cpu:              36.1 elap:              36.1
 (Enter /opt/gaussian/g16_legacy/l716.exe)
 Dipole        =-1.00181763D-01 3.49787485D-02 3.63233813D-03
 ***** Axes restored to original set *****
 -------------------------------------------------------------------
 Center     Atomic                   Forces (Hartrees/Bohr)
 Number     Number              X              Y              Z
 -------------------------------------------------------------------
      1        6           0.007478986    0.000482687   -0.005066510
      2        1           0.000239687   -0.001685667    0.003583663
      3        1           0.001006240   -0.000188532    0.004315190
      4        6           0.001818530   -0.001349676   -0.005718977
      5        6           0.002750255   -0.001139992    0.000039714
      6        1          -0.000640751   -0.000605511    0.003261000
      7        1          -0.001094833   -0.000747533   -0.003027404
      8        1          -0.002495969    0.003165616    0.000832064
      9        6          -0.001844866   -0.001572581    0.002773618
     10        1          -0.003388629   -0.000988671    0.000390936
     11        6          -0.000550611    0.002660945    0.000769891
     12        1          -0.000808116    0.001189819   -0.003189246
     13        1           0.001506944   -0.002608487   -0.001668101
     14        1           0.000502427    0.001893872    0.002753813
     15        6           0.001152517    0.003164539   -0.000736980
     16        1          -0.001287662   -0.000370436   -0.003080688
     17        1           0.000677143   -0.004327836    0.000155125
     18        1          -0.000918907   -0.000125703    0.003364333
     19        6           0.001235880    0.004377307   -0.003100312
     20        6           0.003475603   -0.003039442   -0.000574497
     21        1          -0.001312624   -0.000730794   -0.002743366
     22        1          -0.001082864    0.003007914    0.001374486
     23        1           0.000134255    0.001046932    0.003525736
     24        6           0.002295518   -0.001758050    0.004262760
     25        1          -0.002866477   -0.001680759   -0.000319921
     26        6          -0.005811133    0.002080134    0.004605440
     27        1           0.000367923   -0.001579012   -0.003930642
     28        1          -0.000538464    0.001428916   -0.002851124
 -------------------------------------------------------------------
 Cartesian Forces:  Max     0.007478986 RMS     0.002536343
 Leave Link  716 at Fri Sep 17 15:04:18 2021, MaxMem=   524288000 cpu:               0.1 elap:               0.1
 (Enter /opt/gaussian/g16_legacy/l103.exe)

 GradGradGradGradGradGradGradGradGradGradGradGradGradGradGradGradGradGrad
 Berny optimization.
 FormGI is forming the generalized inverse of G from B-inverse, IUseBI=4.
 Internal  Forces:  Max     0.004126046 RMS     0.001891439
 Search for a local minimum.
 Step number   1 out of a maximum of  138
 All quantities printed in internal units (Hartrees-Bohrs-Radians)
 RMS Force = .18914D-02 SwitMx=.10000D-02 MixMth= 1
 Mixed Optimization -- RFO/linear search
 Second derivative matrix not updated -- first step.
 ITU=  0
     Eigenvalues ---    0.00341   0.00570   0.00667   0.00680   0.00692
     Eigenvalues ---    0.00715   0.00820   0.01219   0.01287   0.01569
     Eigenvalues ---    0.01642   0.02780   0.02785   0.04014   0.04133
     Eigenvalues ---    0.05350   0.05403   0.06981   0.07038   0.07088
     Eigenvalues ---    0.07093   0.07265   0.07301   0.07347   0.07505
     Eigenvalues ---    0.09277   0.09365   0.12769   0.12846   0.15999
     Eigenvalues ---    0.15999   0.16000   0.16000   0.16000   0.16000
     Eigenvalues ---    0.16000   0.16000   0.16000   0.16000   0.16000
     Eigenvalues ---    0.16000   0.16000   0.16000   0.21859   0.21867
     Eigenvalues ---    0.22000   0.22000   0.24993   0.24996   0.24998
     Eigenvalues ---    0.24999   0.29231   0.30875   0.31608   0.31706
     Eigenvalues ---    0.31801   0.31976   0.32806   0.33864   0.33934
     Eigenvalues ---    0.34068   0.34192   0.34221   0.34227   0.34248
     Eigenvalues ---    0.34248   0.34258   0.34261   0.34268   0.34294
     Eigenvalues ---    0.34302   0.34342   0.34543   0.34554   0.34801
     Eigenvalues ---    0.34843   0.55496   0.55580
 RFO step:  Lambda=-2.86587321D-03 EMin= 3.41438523D-03
 Linear search not attempted -- first point.
 Iteration  1 RMS(Cart)=  0.04043585 RMS(Int)=  0.00070779
 Iteration  2 RMS(Cart)=  0.00101837 RMS(Int)=  0.00015646
 Iteration  3 RMS(Cart)=  0.00000056 RMS(Int)=  0.00015646
 ITry= 1 IFail=0 DXMaxC= 1.33D-01 DCOld= 1.00D+10 DXMaxT= 3.00D-01 DXLimC= 3.00D+00 Rises=F
 Variable       Old X    -DE/DX   Delta X   Delta X   Delta X     New X
                                 (Linear)    (Quad)   (Total)
    R1        2.07216  -0.00291   0.00000  -0.00847  -0.00847   2.06369
    R2        2.07561  -0.00310   0.00000  -0.00907  -0.00907   2.06653
    R3        2.86252  -0.00346   0.00000  -0.01112  -0.01112   2.85140
    R4        2.89523   0.00157   0.00000   0.00531   0.00531   2.90054
    R5        2.84867  -0.00061   0.00000  -0.00191  -0.00191   2.84675
    R6        2.54693  -0.00391   0.00000  -0.00701  -0.00701   2.53993
    R7        2.06914  -0.00215   0.00000  -0.00624  -0.00624   2.06290
    R8        2.06824  -0.00166   0.00000  -0.00481  -0.00481   2.06342
    R9        2.06949  -0.00371   0.00000  -0.01075  -0.01075   2.05874
   R10        2.05930  -0.00220   0.00000  -0.00626  -0.00626   2.05304
   R11        2.82693   0.00310   0.00000   0.00936   0.00936   2.83629
   R12        2.06897  -0.00268   0.00000  -0.00775  -0.00775   2.06122
   R13        2.06405  -0.00304   0.00000  -0.00873  -0.00873   2.05532
   R14        2.06756  -0.00155   0.00000  -0.00449  -0.00449   2.06307
   R15        2.06913  -0.00199   0.00000  -0.00576  -0.00576   2.06337
   R16        2.06958  -0.00399   0.00000  -0.01158  -0.01158   2.05800
   R17        2.06891  -0.00192   0.00000  -0.00557  -0.00557   2.06335
   R18        2.84685  -0.00074   0.00000  -0.00231  -0.00231   2.84454
   R19        2.84189  -0.00048   0.00000  -0.00147  -0.00147   2.84041
   R20        2.54620  -0.00321   0.00000  -0.00575  -0.00575   2.54046
   R21        2.06880  -0.00187   0.00000  -0.00540  -0.00540   2.06340
   R22        2.06423  -0.00291   0.00000  -0.00835  -0.00835   2.05588
   R23        2.07007  -0.00271   0.00000  -0.00785  -0.00785   2.06222
   R24        2.05999  -0.00198   0.00000  -0.00565  -0.00565   2.05433
   R25        2.84509  -0.00141   0.00000  -0.00441  -0.00441   2.84069
   R26        2.07442  -0.00276   0.00000  -0.00806  -0.00806   2.06636
   R27        2.06837  -0.00238   0.00000  -0.00688  -0.00688   2.06149
    A1        1.82996   0.00206   0.00000   0.02220   0.02203   1.85199
    A2        1.93124  -0.00017   0.00000   0.00560   0.00562   1.93686
    A3        1.91976  -0.00201   0.00000  -0.01374  -0.01378   1.90599
    A4        1.90141  -0.00009   0.00000   0.00118   0.00118   1.90259
    A5        1.91818  -0.00275   0.00000  -0.02410  -0.02413   1.89405
    A6        1.95884   0.00287   0.00000   0.00937   0.00941   1.96825
    A7        2.00711   0.00173   0.00000   0.00717   0.00663   2.01374
    A8        2.17222  -0.00413   0.00000  -0.01594  -0.01645   2.15577
    A9        2.10364   0.00241   0.00000   0.00992   0.00937   2.11301
   A10        1.92471   0.00166   0.00000   0.00910   0.00912   1.93383
   A11        1.92851   0.00227   0.00000   0.01212   0.01215   1.94066
   A12        1.95923  -0.00266   0.00000  -0.01334  -0.01330   1.94593
   A13        1.89476  -0.00307   0.00000  -0.02465  -0.02464   1.87012
   A14        1.87748   0.00112   0.00000   0.01041   0.01045   1.88793
   A15        1.87697   0.00055   0.00000   0.00552   0.00555   1.88253
   A16        2.06928  -0.00196   0.00000  -0.01345  -0.01347   2.05581
   A17        2.22585  -0.00181   0.00000  -0.00809  -0.00811   2.21774
   A18        1.98793   0.00377   0.00000   0.02171   0.02169   2.00962
   A19        1.91006   0.00237   0.00000   0.01553   0.01548   1.92554
   A20        1.98083  -0.00284   0.00000  -0.01749  -0.01740   1.96343
   A21        1.91738   0.00384   0.00000   0.02266   0.02262   1.94001
   A22        1.87276   0.00045   0.00000   0.00451   0.00457   1.87733
   A23        1.88710  -0.00305   0.00000  -0.01870  -0.01887   1.86823
   A24        1.89309  -0.00096   0.00000  -0.00760  -0.00751   1.88558
   A25        1.87874   0.00092   0.00000   0.00793   0.00797   1.88671
   A26        1.89487  -0.00313   0.00000  -0.02543  -0.02543   1.86944
   A27        1.92346   0.00175   0.00000   0.00879   0.00881   1.93227
   A28        1.87922   0.00091   0.00000   0.00931   0.00935   1.88857
   A29        1.96059  -0.00277   0.00000  -0.01385  -0.01381   1.94677
   A30        1.92495   0.00221   0.00000   0.01241   0.01243   1.93739
   A31        1.99474   0.00146   0.00000   0.00582   0.00579   2.00053
   A32        2.10561   0.00188   0.00000   0.00749   0.00747   2.11308
   A33        2.18279  -0.00335   0.00000  -0.01320  -0.01322   2.16957
   A34        1.92164   0.00225   0.00000   0.01143   0.01145   1.93309
   A35        1.97930  -0.00212   0.00000  -0.00958  -0.00956   1.96973
   A36        1.92085   0.00001   0.00000  -0.00092  -0.00090   1.91995
   A37        1.88478   0.00022   0.00000   0.00330   0.00332   1.88810
   A38        1.89069  -0.00238   0.00000  -0.02150  -0.02148   1.86921
   A39        1.86370   0.00193   0.00000   0.01648   0.01649   1.88019
   A40        2.06739  -0.00180   0.00000  -0.01218  -0.01258   2.05481
   A41        2.22780  -0.00178   0.00000  -0.00779  -0.00820   2.21960
   A42        1.98785   0.00359   0.00000   0.02080   0.02038   2.00823
   A43        1.94438   0.00332   0.00000   0.01376   0.01380   1.95818
   A44        1.91628  -0.00337   0.00000  -0.02310  -0.02330   1.89298
   A45        1.93091  -0.00168   0.00000  -0.01699  -0.01707   1.91384
   A46        1.88219   0.00135   0.00000   0.02206   0.02218   1.90437
   A47        1.94480  -0.00129   0.00000  -0.00736  -0.00730   1.93751
   A48        1.84174   0.00156   0.00000   0.01196   0.01170   1.85344
    D1       -2.64807  -0.00158   0.00000  -0.05501  -0.05482  -2.70290
    D2        0.47170  -0.00063   0.00000   0.00611   0.00590   0.47760
    D3       -0.64503   0.00075   0.00000  -0.02454  -0.02432  -0.66935
    D4        2.47474   0.00170   0.00000   0.03658   0.03641   2.51114
    D5        1.48335  -0.00090   0.00000  -0.04805  -0.04786   1.43549
    D6       -1.68006   0.00005   0.00000   0.01308   0.01286  -1.66720
    D7        0.96558   0.00055   0.00000   0.01718   0.01718   0.98276
    D8       -1.11827  -0.00105   0.00000  -0.00397  -0.00380  -1.12206
    D9        3.13912   0.00005   0.00000   0.00515   0.00511  -3.13895
   D10       -1.04062   0.00077   0.00000   0.01193   0.01185  -1.02877
   D11       -3.12447  -0.00082   0.00000  -0.00922  -0.00913  -3.13359
   D12        1.13292   0.00027   0.00000  -0.00010  -0.00022   1.13270
   D13        3.12377   0.00088   0.00000   0.02099   0.02093  -3.13849
   D14        1.03992  -0.00071   0.00000  -0.00017  -0.00005   1.03988
   D15       -0.98588   0.00038   0.00000   0.00896   0.00886  -0.97702
   D16        1.03809  -0.00011   0.00000   0.03754   0.03785   1.07594
[...]
                 (A) (A) (A) (A) (A) (A) (A) (A) (A) (A) (A) (A)
                 (A) (A) (A) (A) (A) (A) (A) (A) (A) (A) (A) (A)
                 (A) (A) (A) (A) (A) (A) (A) (A) (A) (A) (A) (A)
                 (A) (A) (A) (A) (A) (A) (A) (A) (A) (A) (A) (A)
                 (A) (A) (A) (A) (A) (A) (A) (A) (A) (A) (A) (A)
                 (A) (A) (A) (A) (A) (A) (A) (A) (A) (A) (A) (A)
                 (A) (A) (A) (A) (A) (A) (A) (A) (A) (A) (A) (A)
                 (A) (A) (A) (A) (A) (A) (A) (A) (A) (A) (A) (A)
                 (A) (A) (A) (A) (A) (A) (A) (A) (A) (A) (A) (A)
                 (A) (A) (A) (A) (A) (A) (A) (A) (A) (A) (A) (A)
                 (A) (A) (A) (A) (A) (A) (A) (A) (A) (A) (A) (A)
                 (A) (A) (A) (A) (A) (A) (A) (A) (A) (A) (A) (A)
                 (A) (A) (A) (A) (A) (A) (A) (A) (A) (A) (A) (A)
                 (A) (A) (A) (A) (A) (A) (A) (A) (A) (A) (A) (A)
                 (A) (A) (A) (A) (A) (A) (A) (A) (A)
 The electronic state is 1-A.
 Alpha  occ. eigenvalues --  -11.23028 -11.22456 -11.21863 -11.21726 -11.21721
 Alpha  occ. eigenvalues --  -11.21541 -11.21497 -11.21449 -11.21393 -11.21358
 Alpha  occ. eigenvalues --   -1.10803  -1.08495  -1.01828  -0.98138  -0.93839
 Alpha  occ. eigenvalues --   -0.91936  -0.86954  -0.82861  -0.70567  -0.69489
 Alpha  occ. eigenvalues --   -0.64754  -0.61539  -0.60720  -0.58828  -0.58414
 Alpha  occ. eigenvalues --   -0.56814  -0.55405  -0.54979  -0.53298  -0.52217
 Alpha  occ. eigenvalues --   -0.51714  -0.51214  -0.50653  -0.50166  -0.47383
 Alpha  occ. eigenvalues --   -0.46917  -0.44458  -0.33328  -0.31563
 Alpha virt. eigenvalues --    0.18100   0.19932   0.22053   0.24536   0.24955
 Alpha virt. eigenvalues --    0.27424   0.28601   0.28877   0.30353   0.30694
 Alpha virt. eigenvalues --    0.31966   0.32601   0.32969   0.33726   0.34466
 Alpha virt. eigenvalues --    0.35524   0.36421   0.37370   0.38662   0.39972
 Alpha virt. eigenvalues --    0.40998   0.42095   0.42777   0.44262   0.45477
 Alpha virt. eigenvalues --    0.51938   0.54227   0.61292   0.62632   0.69521
 Alpha virt. eigenvalues --    0.71676   0.71855   0.74127   0.75627   0.76300
 Alpha virt. eigenvalues --    0.77310   0.78587   0.80192   0.80428   0.82510
 Alpha virt. eigenvalues --    0.83060   0.85963   0.89706   0.90634   0.91906
 Alpha virt. eigenvalues --    0.92727   0.94246   0.96733   0.97890   0.99038
 Alpha virt. eigenvalues --    0.99663   1.01316   1.02330   1.04636   1.06421
 Alpha virt. eigenvalues --    1.06946   1.08561   1.08610   1.11036   1.12563
 Alpha virt. eigenvalues --    1.13528   1.14242   1.14315   1.15516   1.15561
 Alpha virt. eigenvalues --    1.15995   1.16443   1.18511   1.18881   1.20423
 Alpha virt. eigenvalues --    1.21361   1.22874   1.23837   1.26678   1.27279
 Alpha virt. eigenvalues --    1.29587   1.40505   1.41229   1.45131   1.46302
 Alpha virt. eigenvalues --    1.47303   1.54539   1.56916   1.57904   1.58162
 Alpha virt. eigenvalues --    1.61580   1.62900   1.65166   1.67986   1.70099
 Alpha virt. eigenvalues --    1.73688   1.82808   1.91104   1.92024   1.96649
 Alpha virt. eigenvalues --    1.98629   2.01394   2.02264   2.04662   2.08570
 Alpha virt. eigenvalues --    2.09659   2.11023   2.11867   2.13286   2.14333
 Alpha virt. eigenvalues --    2.15615   2.17830   2.19386   2.23464   2.28302
 Alpha virt. eigenvalues --    2.29342   2.30634   2.33018   2.35331   2.35655
 Alpha virt. eigenvalues --    2.35947   2.36091   2.39306   2.40246   2.40800
 Alpha virt. eigenvalues --    2.42218   2.43338   2.43738   2.45452   2.46063
 Alpha virt. eigenvalues --    2.47468   2.49490   2.50160   2.50478   2.53353
 Alpha virt. eigenvalues --    2.56171   2.59443   2.61268   2.62977   2.65059
 Alpha virt. eigenvalues --    2.67062   2.68311   2.71449   2.72617   2.74255
 Alpha virt. eigenvalues --    2.76086   2.77474   2.80595   2.82947   2.83712
 Alpha virt. eigenvalues --    2.86556   2.90534   2.92645   2.94406   2.94575
 Alpha virt. eigenvalues --    2.97681   2.98672   3.01242   3.02716   3.05048
 Alpha virt. eigenvalues --    3.06983   3.08131   3.09712   3.12652   3.17075
 Alpha virt. eigenvalues --    3.17580   3.18813   3.20184   3.20611   3.22304
 Alpha virt. eigenvalues --    3.23445   3.25849   3.26685   3.27777   3.38376
 Alpha virt. eigenvalues --    3.40097   3.45764   3.46979   3.56086   3.58279
 Alpha virt. eigenvalues --    3.59222   3.61997   3.68641   3.74872   3.78914
 Alpha virt. eigenvalues --    3.79698   3.81279   3.82681   3.83341   3.84006
 Alpha virt. eigenvalues --    3.84104   3.86511   3.88184   3.89137   3.91421
 Alpha virt. eigenvalues --    3.97579   4.59401   4.62757   4.74521   4.82179
 Alpha virt. eigenvalues --    4.89167   4.92294   4.93230   5.07407   5.10903
 Alpha virt. eigenvalues --    5.17835
          Condensed to atoms (all electrons):
               1          2          3          4          5          6
     1  C    5.003997   0.413411   0.412745   0.339222  -0.057161  -0.003571
     2  H    0.413411   0.576310  -0.028359  -0.039654   0.003215  -0.000037
     3  H    0.412745  -0.028359   0.584867  -0.045647  -0.004621   0.002410
     4  C    0.339222  -0.039654  -0.045647   4.951262   0.352880  -0.041600
     5  C   -0.057161   0.003215  -0.004621   0.352880   4.891657   0.397676
     6  H   -0.003571  -0.000037   0.002410  -0.041600   0.397676   0.591603
     7  H   -0.000045  -0.000012  -0.000557  -0.045807   0.400489  -0.037732
     8  H    0.003819  -0.000111   0.000114  -0.042642   0.407271  -0.026708
     9  C   -0.046576  -0.001941   0.002347   0.696859  -0.046080  -0.000465
    10  H    0.003280   0.000029  -0.000115  -0.037937  -0.006573   0.000218
    11  C   -0.007739  -0.002699   0.000152  -0.049997   0.003357  -0.000104
    12  H    0.000295  -0.000067  -0.000013  -0.000357  -0.000097  -0.000004
    13  H   -0.002166  -0.001508   0.000038  -0.000577   0.000102   0.000001
    14  H    0.000167   0.000160   0.000018  -0.000541  -0.000105   0.000017
    15  C   -0.000102  -0.000001  -0.000045   0.000002  -0.000000   0.000000
    16  H   -0.000005   0.000000   0.000002   0.000000  -0.000000   0.000000
    17  H   -0.000003   0.000002  -0.000002   0.000000  -0.000000  -0.000000
    18  H    0.000024  -0.000001  -0.000008  -0.000000   0.000000  -0.000000
    19  C   -0.004098   0.000622   0.001256  -0.000004   0.000007  -0.000001
    20  C    0.000549  -0.000016   0.000191  -0.000019  -0.000025  -0.000001
    21  H   -0.000041   0.000000   0.000017   0.000001  -0.000000   0.000000
    22  H   -0.000058  -0.000011   0.000094  -0.000061   0.000096  -0.000000
    23  H    0.000120  -0.000001  -0.000099  -0.000004   0.000001   0.000000
    24  C   -0.062090  -0.001230   0.000057   0.006210  -0.000074   0.000003
    25  H   -0.000091   0.001049   0.000171  -0.000105  -0.000002   0.000000
    26  C    0.331129  -0.042384  -0.045729  -0.055684  -0.001011   0.000075
    27  H   -0.046716  -0.002896   0.004692  -0.001441   0.000280   0.000005
    28  H   -0.042601   0.004316  -0.002340  -0.002245  -0.000436   0.000058
               7          8          9         10         11         12
     1  C   -0.000045   0.003819  -0.046576   0.003280  -0.007739   0.000295
     2  H   -0.000012  -0.000111  -0.001941   0.000029  -0.002699  -0.000067
     3  H   -0.000557   0.000114   0.002347  -0.000115   0.000152  -0.000013
     4  C   -0.045807  -0.042642   0.696859  -0.037937  -0.049997  -0.000357
     5  C    0.400489   0.407271  -0.046080  -0.006573   0.003357  -0.000097
     6  H   -0.037732  -0.026708  -0.000465   0.000218  -0.000104  -0.000004
     7  H    0.599593  -0.027516  -0.000883   0.000143  -0.000102   0.000016
     8  H   -0.027516   0.568320  -0.002982   0.002347   0.000133  -0.000005
     9  C   -0.000883  -0.002982   4.938271   0.404337   0.340912  -0.041711
    10  H    0.000143   0.002347   0.404337   0.559262  -0.041317  -0.001238
    11  C   -0.000102   0.000133   0.340912  -0.041317   4.898015   0.401889
    12  H    0.000016  -0.000005  -0.041711  -0.001238   0.401889   0.585671
    13  H   -0.000002   0.000005  -0.043875   0.003330   0.409145  -0.029082
    14  H   -0.000004  -0.000006  -0.041774  -0.001163   0.401438  -0.035520
    15  C   -0.000000   0.000000  -0.000000   0.000000   0.000000  -0.000000
    16  H    0.000000   0.000000  -0.000000   0.000000  -0.000000  -0.000000
    17  H   -0.000000  -0.000000  -0.000000   0.000000  -0.000000  -0.000000
    18  H    0.000000  -0.000000   0.000000  -0.000000  -0.000000   0.000000
    19  C    0.000021  -0.000000  -0.000003   0.000000   0.000000   0.000000
    20  C   -0.000043   0.000000  -0.000000  -0.000000  -0.000000  -0.000000
    21  H   -0.000000   0.000000   0.000000   0.000000   0.000000  -0.000000
    22  H    0.000361  -0.000001  -0.000001   0.000000  -0.000000   0.000000
    23  H   -0.000001  -0.000000   0.000000  -0.000000   0.000000   0.000000
    24  C   -0.000104   0.000002   0.000036   0.000002  -0.000027  -0.000007
    25  H   -0.000000   0.000000   0.000007  -0.000000  -0.000002  -0.000000
    26  C    0.000669  -0.000108  -0.004455  -0.000120   0.000509   0.000149
    27  H   -0.000003  -0.000004   0.001236  -0.000038   0.000051  -0.000081
    28  H   -0.000466  -0.000040   0.000648   0.000001  -0.000030  -0.000000
              13         14         15         16         17         18
     1  C   -0.002166   0.000167  -0.000102  -0.000005  -0.000003   0.000024
     2  H   -0.001508   0.000160  -0.000001   0.000000   0.000002  -0.000001
     3  H    0.000038   0.000018  -0.000045   0.000002  -0.000002  -0.000008
     4  C   -0.000577  -0.000541   0.000002   0.000000   0.000000  -0.000000
     5  C    0.000102  -0.000105  -0.000000  -0.000000  -0.000000   0.000000
     6  H    0.000001   0.000017   0.000000   0.000000  -0.000000  -0.000000
     7  H   -0.000002  -0.000004  -0.000000   0.000000  -0.000000   0.000000
     8  H    0.000005  -0.000006   0.000000   0.000000  -0.000000  -0.000000
     9  C   -0.043875  -0.041774  -0.000000  -0.000000  -0.000000   0.000000
    10  H    0.003330  -0.001163   0.000000   0.000000   0.000000  -0.000000
    11  C    0.409145   0.401438   0.000000  -0.000000  -0.000000  -0.000000
    12  H   -0.029082  -0.035520  -0.000000  -0.000000  -0.000000   0.000000
    13  H    0.577276  -0.027817  -0.000000   0.000000   0.000000  -0.000000
    14  H   -0.027817   0.584890   0.000000   0.000000  -0.000000  -0.000000
    15  C   -0.000000   0.000000   4.900552   0.398829   0.406165   0.398175
    16  H    0.000000   0.000000   0.398829   0.593696  -0.026546  -0.037823
    17  H    0.000000  -0.000000   0.406165  -0.026546   0.565965  -0.026667
    18  H   -0.000000  -0.000000   0.398175  -0.037823  -0.026667   0.594540
    19  C    0.000001  -0.000000   0.353472  -0.044307  -0.041665  -0.043823
    20  C    0.000000   0.000000  -0.065053  -0.001177   0.003789  -0.001990
    21  H    0.000000   0.000000  -0.002204   0.002752  -0.000055  -0.000448
    22  H    0.000000  -0.000000   0.003758  -0.000032  -0.000115  -0.000068
    23  H   -0.000000  -0.000000  -0.002670  -0.000486  -0.000029   0.002769
    24  C    0.000064   0.000002  -0.044228  -0.001279  -0.002577  -0.000470
    25  H    0.000025  -0.000000  -0.006998   0.000188   0.002368   0.000180
    26  C   -0.000554  -0.000037   0.003136  -0.000128   0.000144  -0.000071
    27  H    0.000016   0.000025  -0.000091   0.000009  -0.000009  -0.000002
    28  H   -0.000004  -0.000000   0.000050   0.000006   0.000007  -0.000004
              19         20         21         22         23         24
     1  C   -0.004098   0.000549  -0.000041  -0.000058   0.000120  -0.062090
     2  H    0.000622  -0.000016   0.000000  -0.000011  -0.000001  -0.001230
     3  H    0.001256   0.000191   0.000017   0.000094  -0.000099   0.000057
     4  C   -0.000004  -0.000019   0.000001  -0.000061  -0.000004   0.006210
     5  C    0.000007  -0.000025  -0.000000   0.000096   0.000001  -0.000074
     6  H   -0.000001  -0.000001   0.000000  -0.000000   0.000000   0.000003
     7  H    0.000021  -0.000043  -0.000000   0.000361  -0.000001  -0.000104
     8  H   -0.000000   0.000000   0.000000  -0.000001  -0.000000   0.000002
     9  C   -0.000003  -0.000000   0.000000  -0.000001   0.000000   0.000036
    10  H    0.000000  -0.000000   0.000000   0.000000  -0.000000   0.000002
    11  C    0.000000  -0.000000   0.000000  -0.000000   0.000000  -0.000027
    12  H    0.000000  -0.000000  -0.000000   0.000000   0.000000  -0.000007
    13  H    0.000001   0.000000   0.000000   0.000000  -0.000000   0.000064
    14  H   -0.000000   0.000000   0.000000  -0.000000  -0.000000   0.000002
    15  C    0.353472  -0.065053  -0.002204   0.003758  -0.002670  -0.044228
    16  H   -0.044307  -0.001177   0.002752  -0.000032  -0.000486  -0.001279
    17  H   -0.041665   0.003789  -0.000055  -0.000115  -0.000029  -0.002577
    18  H   -0.043823  -0.001990  -0.000448  -0.000068   0.002769  -0.000470
    19  C    4.915064   0.350683  -0.043642  -0.037727  -0.043358   0.696285
    20  C    0.350683   4.904567   0.400306   0.406928   0.401034  -0.044156
    21  H   -0.043642   0.400306   0.585123  -0.026774  -0.035758  -0.000377
    22  H   -0.037727   0.406928  -0.026774   0.570628  -0.028092  -0.003150
    23  H   -0.043358   0.401034  -0.035758  -0.028092   0.586876  -0.000024
    24  C    0.696285  -0.044156  -0.000377  -0.003150  -0.000024   4.960934
    25  H   -0.038332   0.003541  -0.000120   0.000051  -0.000122   0.403960
    26  C   -0.049354  -0.007949   0.000140  -0.002567   0.000348   0.340992
    27  H    0.001446   0.000178   0.000024   0.000062  -0.000014  -0.041006
    28  H    0.000417  -0.002567   0.000086  -0.001997  -0.000063  -0.044503
              25         26         27         28
     1  C   -0.000091   0.331129  -0.046716  -0.042601
     2  H    0.001049  -0.042384  -0.002896   0.004316
     3  H    0.000171  -0.045729   0.004692  -0.002340
     4  C   -0.000105  -0.055684  -0.001441  -0.002245
     5  C   -0.000002  -0.001011   0.000280  -0.000436
     6  H    0.000000   0.000075   0.000005   0.000058
     7  H   -0.000000   0.000669  -0.000003  -0.000466
     8  H    0.000000  -0.000108  -0.000004  -0.000040
     9  C    0.000007  -0.004455   0.001236   0.000648
    10  H   -0.000000  -0.000120  -0.000038   0.000001
    11  C   -0.000002   0.000509   0.000051  -0.000030
    12  H   -0.000000   0.000149  -0.000081  -0.000000
    13  H    0.000025  -0.000554   0.000016  -0.000004
    14  H   -0.000000  -0.000037   0.000025  -0.000000
    15  C   -0.006998   0.003136  -0.000091   0.000050
    16  H    0.000188  -0.000128   0.000009   0.000006
    17  H    0.002368   0.000144  -0.000009   0.000007
    18  H    0.000180  -0.000071  -0.000002  -0.000004
    19  C   -0.038332  -0.049354   0.001446   0.000417
    20  C    0.003541  -0.007949   0.000178  -0.002567
    21  H   -0.000120   0.000140   0.000024   0.000086
    22  H    0.000051  -0.002567   0.000062  -0.001997
    23  H   -0.000122   0.000348  -0.000014  -0.000063
    24  C    0.403960   0.340992  -0.041006  -0.044503
    25  H    0.558056  -0.040061  -0.003353   0.003267
    26  C   -0.040061   4.977839   0.413228   0.416251
    27  H   -0.003353   0.413228   0.579538  -0.028540
    28  H    0.003267   0.416251  -0.028540   0.582598
 Mulliken charges:
               1
     1  C   -0.235696
     2  H    0.121814
     3  H    0.118365
     4  C    0.017883
     5  C   -0.340845
     6  H    0.118156
     7  H    0.111985
     8  H    0.118112
     9  C   -0.153908
    10  H    0.115552
    11  C   -0.353585
    12  H    0.120163
    13  H    0.115581
    14  H    0.120250
    15  C   -0.342746
    16  H    0.116299
    17  H    0.119226
    18  H    0.115688
    19  C    0.027041
    20  C   -0.348771
    21  H    0.120971
    22  H    0.118676
    23  H    0.119572
    24  C   -0.163245
    25  H    0.116321
    26  C   -0.234395
    27  H    0.123405
    28  H    0.118132
 Sum of Mulliken charges =  -0.00000
 Mulliken charges with hydrogens summed into heavy atoms:
               1
     1  C    0.004483
     4  C    0.017883
     5  C    0.007409
     9  C   -0.038356
    11  C    0.002408
    15  C    0.008468
    19  C    0.027041
    20  C    0.010448
    24  C   -0.046924
    26  C    0.007142
 Electronic spatial extent (au):  <R**2>=           2498.6170
 Charge=             -0.0000 electrons
 Dipole moment (field-independent basis, Debye):
    X=             -0.3626    Y=              0.1699    Z=              0.0498  Tot=              0.4035
 Quadrupole moment (field-independent basis, Debye-Ang):
   XX=            -63.7582   YY=            -63.7112   ZZ=            -67.3994
   XY=             -1.0617   XZ=             -1.2177   YZ=             -0.3674
 Traceless Quadrupole moment (field-independent basis, Debye-Ang):
   XX=              1.1981   YY=              1.2451   ZZ=             -2.4431
   XY=             -1.0617   XZ=             -1.2177   YZ=             -0.3674
 Octapole moment (field-independent basis, Debye-Ang**2):
  XXX=             -2.8324  YYY=             -2.8562  ZZZ=              0.8775  XYY=              0.7382
  XXY=              1.7309  XXZ=             -2.8066  XZZ=             -1.5462  YZZ=              1.4376
  YYZ=              0.7861  XYZ=              0.4940
 Hexadecapole moment (field-independent basis, Debye-Ang**3):
 XXXX=          -2633.5345 YYYY=           -638.9544 ZZZZ=           -166.0440 XXXY=            -10.5034
 XXXZ=            -13.5605 YYYX=              7.0822 YYYZ=             -1.6738 ZZZX=             -4.0399
 ZZZY=              2.3776 XXYY=           -550.6720 XXZZ=           -483.2677 YYZZ=           -131.1157
 XXYZ=             -4.5757 YYXZ=             -2.5312 ZZXY=             -7.7339
 N-N= 5.156964822566D+02 E-N=-1.936106330433D+03  KE= 3.887456770846D+02
 No NMR shielding tensors so no spin-rotation constants.
 Leave Link  601 at Fri Sep 17 16:54:07 2021, MaxMem=   524288000 cpu:               0.3 elap:               0.6
 (Enter /opt/gaussian/g16_legacy/l9999.exe)
 1\1\GINC-TRUENO90\FOpt\RMP2-FC\6-31G(d,p)\C10H18\JRAMOS\17-Sep-2021\0\
 \#p opt mp2/6-31g(d,p)\\Conformer number 3119. Energy MM = 23.287 kcal
 /mol\\0,1\C,0.5741935084,0.0809732754,-0.9176612088\H,0.6715579187,1.0
 775777088,-1.3517106743\H,-0.2082680728,-0.4265176066,-1.4886455768\C,
 1.8616128358,-0.6959928582,-1.030236487\C,1.7051906716,-2.189436808,-1
 .1284487484\H,1.1732460499,-2.46467082,-2.0417627222\H,1.1208957716,-2
 .5785983268,-0.2915116752\H,2.6705127749,-2.694072123,-1.129442177\C,3
 .0821081943,-0.1293687455,-0.9970556327\H,3.9442309102,-0.7877410286,-
 1.0594593322\C,3.396738906,1.3310413386,-0.8798729842\H,4.0017520856,1
 .524291028,0.0078460876\H,2.5011533679,1.9438008575,-0.8089448677\H,3.
 9746553983,1.6759621137,-1.7393379763\C,-3.6409722511,1.3291181138,0.8
 229609138\H,-4.1932511575,1.1699582929,1.7519098572\H,-3.3681360248,2.
 381660074,0.7641773731\H,-4.3287577483,1.1069505614,0.0039500673\C,-2.
 4296258688,0.4399830964,0.7620146289\C,-2.7262707291,-1.0318365783,0.8
 432613316\H,-3.2182340936,-1.2717883585,1.7885006316\H,-1.8365601517,-
 1.6502200372,0.7563392632\H,-3.4151936092,-1.3207415034,0.0466833835\C
 ,-1.1940765243,0.9625709509,0.6479777128\H,-1.1141478632,2.0445556181,
 0.5771137261\C,0.100950999,0.2134662394,0.5427290369\H,0.8749198503,0.
 7388111362,1.1082727072\H,0.0194748519,-0.7796356111,0.9864533422\\Ver
 sion=EM64L-G16RevA.03\State=1-A\HF=-389.1568792\MP2=-390.573553\RMSD=2
 .406e-09\RMSF=3.832e-06\Dipole=-0.1094082,-0.0304059,0.0159358\PG=C01 
 [X(C10H18)]\\@


 Fatherhood is pretending the present you love most is soap-on-a-rope.
 -- Bill Cosby
 Job cpu time:       0 days  1 hours 55 minutes 59.4 seconds.
 Elapsed time:       0 days  1 hours 56 minutes 11.3 seconds.
 File lengths (MBytes):  RWF=     32 Int=      0 D2E=      0 Chk=      7 Scr=      1
 Normal termination of Gaussian 16 at Fri Sep 17 16:54:07 2021.
