 Entering Gaussian System, Link 0=/opt/gaussian/g16_legacy/g16
 Input=01-IsoP_2005_gaussian.com
 Output=01-IsoP_2005_gaussian.log
 Initial command:
 /opt/gaussian/g16_legacy/l1.exe "/scratch-local/jramos/2661342/Gau-25136.inp" -scrdir="/scratch-local/jramos/2661342/"
 Entering Link 1 = /opt/gaussian/g16_legacy/l1.exe PID=     25138.
  
 Copyright (c) 1988,1990,1992,1993,1995,1998,2003,2009,2016,
            Gaussian, Inc.  All Rights Reserved.
  
 This is part of the Gaussian(R) 16 program.  It is based on
 the Gaussian(R) 09 system (copyright 2009, Gaussian, Inc.),
 the Gaussian(R) 03 system (copyright 2003, Gaussian, Inc.),
 the Gaussian(R) 98 system (copyright 1998, Gaussian, Inc.),
 the Gaussian(R) 94 system (copyright 1995, Gaussian, Inc.),
 the Gaussian 92(TM) system (copyright 1992, Gaussian, Inc.),
 the Gaussian 90(TM) system (copyright 1990, Gaussian, Inc.),
 the Gaussian 88(TM) system (copyright 1988, Gaussian, Inc.),
 the Gaussian 86(TM) system (copyright 1986, Carnegie Mellon
 University), and the Gaussian 82(TM) system (copyright 1983,
 Carnegie Mellon University). Gaussian is a federally registered
 trademark of Gaussian, Inc.
  
 This software contains proprietary and confidential information,
 including trade secrets, belonging to Gaussian, Inc.
  
 This software is provided under written license and may be
 used, copied, transmitted, or stored only in accord with that
 written license.
  
 The following legend is applicable only to US Government
 contracts under FAR:
  
                    RESTRICTED RIGHTS LEGEND
  
 Use, reproduction and disclosure by the US Government is
 subject to restrictions as set forth in subparagraphs (a)
 and (c) of the Commercial Computer Software - Restricted
 Rights clause in FAR 52.227-19.
  
 Gaussian, Inc.
 340 Quinnipiac St., Bldg. 40, Wallingford CT 06492
  
  
 ---------------------------------------------------------------
 Warning -- This program may not be used in any manner that
 competes with the business of Gaussian, Inc. or will provide
 assistance to any competitor of Gaussian, Inc.  The licensee
 of this program is prohibited from giving any competitor of
 Gaussian, Inc. access to this program.  By using this program,
 the user acknowledges that Gaussian, Inc. is engaged in the
 business of creating and licensing software in the field of
 computational chemistry and represents and warrants to the
 licensee that it is not a competitor of Gaussian, Inc. and that
 it will not use this program in any manner prohibited above.
 ---------------------------------------------------------------
  

 Cite this work as:
 Gaussian 16, Revision A.03,
 M. J. Frisch, G. W. Trucks, H. B. Schlegel, G. E. Scuseria, 
 M. A. Robb, J. R. Cheeseman, G. Scalmani, V. Barone, 
 G. A. Petersson, H. Nakatsuji, X. Li, M. Caricato, A. V. Marenich, 
 J. Bloino, B. G. Janesko, R. Gomperts, B. Mennucci, H. P. Hratchian, 
 J. V. Ortiz, A. F. Izmaylov, J. L. Sonnenberg, D. Williams-Young, 
 F. Ding, F. Lipparini, F. Egidi, J. Goings, B. Peng, A. Petrone, 
 T. Henderson, D. Ranasinghe, V. G. Zakrzewski, J. Gao, N. Rega, 
 G. Zheng, W. Liang, M. Hada, M. Ehara, K. Toyota, R. Fukuda, 
 J. Hasegawa, M. Ishida, T. Nakajima, Y. Honda, O. Kitao, H. Nakai, 
 T. Vreven, K. Throssell, J. A. Montgomery, Jr., J. E. Peralta, 
 F. Ogliaro, M. J. Bearpark, J. J. Heyd, E. N. Brothers, K. N. Kudin, 
 V. N. Staroverov, T. A. Keith, R. Kobayashi, J. Normand, 
 K. Raghavachari, A. P. Rendell, J. C. Burant, S. S. Iyengar, 
 J. Tomasi, M. Cossi, J. M. Millam, M. Klene, C. Adamo, R. Cammi, 
 J. W. Ochterski, R. L. Martin, K. Morokuma, O. Farkas, 
 J. B. Foresman, and D. J. Fox, Gaussian, Inc., Wallingford CT, 2016.
 
 ******************************************
 Gaussian 16:  EM64L-G16RevA.03 25-Dec-2016
                17-Sep-2021 
 ******************************************
 %chk=01-IsoP_2005_gaussian.chk
 %nproc=1
 Will use up to    1 processors via shared memory.
 %mem=4000Mb
 ---------------------
 #p opt mp2/6-31g(d,p)
 ---------------------
 1/18=20,19=15,38=1/1,3;
 2/9=110,12=2,17=6,18=5,40=1/2;
 3/5=1,6=6,7=101,11=9,25=1,30=1,71=1/1,2,3;
 4//1;
 5/5=2,38=5/2;
 8/6=4,10=2/1;
 9/15=2,16=-3/6;
 10/5=1/2;
 6/7=2,8=2,9=2,10=2/1;
 7/12=2/1,2,3,16;
 1/18=20,19=15/3(2);
 2/9=110/2;
 99//99;
 2/9=110/2;
 3/5=1,6=6,7=101,11=9,25=1,30=1,71=1/1,2,3;
 4/5=5,16=3,69=1/1;
 5/5=2,38=5/2;
 8/6=4,10=2/1;
 9/15=2,16=-3/6;
 10/5=1/2;
 7/12=2/1,2,3,16;
 1/18=20,19=15/3(-8);
 2/9=110/2;
 6/7=2,8=2,9=2,10=2/1;
 99//99;
 Leave Link    1 at Fri Sep 17 13:32:35 2021, MaxMem=   524288000 cpu:               0.0 elap:               0.1
 (Enter /opt/gaussian/g16_legacy/l101.exe)
 --------------------------------------------------
 Conformer number 2005. Energy MM = 23.242 kcal/mol
 --------------------------------------------------
 Symbolic Z-matrix:
 Charge =  0 Multiplicity = 1
 C                     0.6813    0.129    -0.9837 
 H                     0.5441    1.125    -0.546 
 H                     0.4473    0.2552   -2.0494 
 C                     2.1213   -0.3203   -0.8445 
 C                     2.6013   -1.2665   -1.915 
 H                     3.649    -1.5535   -1.7756 
 H                     2.5149   -0.7992   -2.9013 
 H                     2.0045   -2.184    -1.9105 
 C                     2.9548    0.0884    0.1326 
 H                     3.9812   -0.2777    0.1293 
 C                     2.6386    0.9971    1.2782 
 H                     3.1966    1.9326    1.1754 
 H                     1.5763    1.2358    1.3648 
 H                     2.9426    0.5205    2.2159 
 C                    -2.091     0.4908    1.8362 
 H                    -2.643    -0.1289    2.5501 
 H                    -2.3042    1.5426    2.0561 
 H                    -1.0239    0.3413    2.0148 
 C                    -2.514     0.1618    0.431 
 C                    -3.9388    0.5313    0.1102 
 H                    -4.0884    1.609     0.2328 
 H                    -4.6261    0.0054    0.781 
 H                    -4.2146    0.2722   -0.9175 
 C                    -1.7237   -0.4025   -0.5031 
 H                    -2.1372   -0.5767   -1.4966 
 C                    -0.2983   -0.8609   -0.3454 
 H                    -0.2076   -1.8432   -0.8262 
 H                    -0.0429   -1.0246    0.7066 
 
 ITRead=  0  0  0  0  0  0  0  0  0  0  0  0  0  0  0  0  0  0  0  0
 ITRead=  0  0  0  0  0  0  0  0
 MicOpt= -1 -1 -1 -1 -1 -1 -1 -1 -1 -1 -1 -1 -1 -1 -1 -1 -1 -1 -1 -1
 MicOpt= -1 -1 -1 -1 -1 -1 -1 -1
 NAtoms=     28 NQM=       28 NQMF=       0 NMMI=      0 NMMIF=      0
                NMic=       0 NMicF=      0.
                    Isotopes and Nuclear Properties:
 (Nuclear quadrupole moments (NQMom) in fm**2, nuclear magnetic moments (NMagM)
  in nuclear magnetons)

  Atom         1           2           3           4           5           6           7           8           9          10
 IAtWgt=          12           1           1          12          12           1           1           1          12           1
 AtmWgt=  12.0000000   1.0078250   1.0078250  12.0000000  12.0000000   1.0078250   1.0078250   1.0078250  12.0000000   1.0078250
 NucSpn=           0           1           1           0           0           1           1           1           0           1
 AtZEff=  -0.0000000  -0.0000000  -0.0000000  -0.0000000  -0.0000000  -0.0000000  -0.0000000  -0.0000000  -0.0000000  -0.0000000
 NQMom=    0.0000000   0.0000000   0.0000000   0.0000000   0.0000000   0.0000000   0.0000000   0.0000000   0.0000000   0.0000000
 NMagM=    0.0000000   2.7928460   2.7928460   0.0000000   0.0000000   2.7928460   2.7928460   2.7928460   0.0000000   2.7928460
 AtZNuc=   6.0000000   1.0000000   1.0000000   6.0000000   6.0000000   1.0000000   1.0000000   1.0000000   6.0000000   1.0000000

  Atom        11          12          13          14          15          16          17          18          19          20
 IAtWgt=          12           1           1           1          12           1           1           1          12          12
 AtmWgt=  12.0000000   1.0078250   1.0078250   1.0078250  12.0000000   1.0078250   1.0078250   1.0078250  12.0000000  12.0000000
 NucSpn=           0           1           1           1           0           1           1           1           0           0
 AtZEff=  -0.0000000  -0.0000000  -0.0000000  -0.0000000  -0.0000000  -0.0000000  -0.0000000  -0.0000000  -0.0000000  -0.0000000
 NQMom=    0.0000000   0.0000000   0.0000000   0.0000000   0.0000000   0.0000000   0.0000000   0.0000000   0.0000000   0.0000000
 NMagM=    0.0000000   2.7928460   2.7928460   2.7928460   0.0000000   2.7928460   2.7928460   2.7928460   0.0000000   0.0000000
 AtZNuc=   6.0000000   1.0000000   1.0000000   1.0000000   6.0000000   1.0000000   1.0000000   1.0000000   6.0000000   6.0000000

  Atom        21          22          23          24          25          26          27          28
 IAtWgt=           1           1           1          12           1          12           1           1
 AtmWgt=   1.0078250   1.0078250   1.0078250  12.0000000   1.0078250  12.0000000   1.0078250   1.0078250
 NucSpn=           1           1           1           0           1           0           1           1
 AtZEff=  -0.0000000  -0.0000000  -0.0000000  -0.0000000  -0.0000000  -0.0000000  -0.0000000  -0.0000000
 NQMom=    0.0000000   0.0000000   0.0000000   0.0000000   0.0000000   0.0000000   0.0000000   0.0000000
 NMagM=    2.7928460   2.7928460   2.7928460   0.0000000   2.7928460   0.0000000   2.7928460   2.7928460
 AtZNuc=   1.0000000   1.0000000   1.0000000   6.0000000   1.0000000   6.0000000   1.0000000   1.0000000
 Leave Link  101 at Fri Sep 17 13:32:36 2021, MaxMem=   524288000 cpu:               0.3 elap:               0.3
 (Enter /opt/gaussian/g16_legacy/l103.exe)

 GradGradGradGradGradGradGradGradGradGradGradGradGradGradGradGradGradGrad
 Berny optimization.
 Initialization pass.
                           ----------------------------
                           !    Initial Parameters    !
                           ! (Angstroms and Degrees)  !
 --------------------------                            --------------------------
 ! Name  Definition              Value          Derivative Info.                !
 --------------------------------------------------------------------------------
 ! R1    R(1,2)                  1.0965         estimate D2E/DX2                !
 ! R2    R(1,3)                  1.0984         estimate D2E/DX2                !
 ! R3    R(1,4)                  1.5149         estimate D2E/DX2                !
 ! R4    R(1,26)                 1.532          estimate D2E/DX2                !
 ! R5    R(4,5)                  1.5072         estimate D2E/DX2                !
 ! R6    R(4,9)                  1.3478         estimate D2E/DX2                !
 ! R7    R(5,6)                  1.0952         estimate D2E/DX2                !
 ! R8    R(5,7)                  1.0948         estimate D2E/DX2                !
 ! R9    R(5,8)                  1.0945         estimate D2E/DX2                !
 ! R10   R(9,10)                 1.0897         estimate D2E/DX2                !
 ! R11   R(9,11)                 1.496          estimate D2E/DX2                !
 ! R12   R(11,12)                1.0941         estimate D2E/DX2                !
 ! R13   R(11,13)                1.0922         estimate D2E/DX2                !
 ! R14   R(11,14)                1.0949         estimate D2E/DX2                !
 ! R15   R(15,16)                1.0947         estimate D2E/DX2                !
 ! R16   R(15,17)                1.0955         estimate D2E/DX2                !
 ! R17   R(15,18)                1.0922         estimate D2E/DX2                !
 ! R18   R(15,19)                1.5039         estimate D2E/DX2                !
 ! R19   R(19,20)                1.5065         estimate D2E/DX2                !
 ! R20   R(19,24)                1.3474         estimate D2E/DX2                !
 ! R21   R(20,21)                1.0949         estimate D2E/DX2                !
 ! R22   R(20,22)                1.095          estimate D2E/DX2                !
 ! R23   R(20,23)                1.0952         estimate D2E/DX2                !
 ! R24   R(24,25)                1.0901         estimate D2E/DX2                !
 ! R25   R(24,26)                1.5056         estimate D2E/DX2                !
 ! R26   R(26,27)                1.0974         estimate D2E/DX2                !
 ! R27   R(26,28)                1.0949         estimate D2E/DX2                !
 ! A1    A(2,1,3)              104.849          estimate D2E/DX2                !
 ! A2    A(2,1,4)              110.5884         estimate D2E/DX2                !
 ! A3    A(2,1,26)             109.9129         estimate D2E/DX2                !
 ! A4    A(3,1,4)              109.0109         estimate D2E/DX2                !
 ! A5    A(3,1,26)             110.0156         estimate D2E/DX2                !
 ! A6    A(4,1,26)             112.2036         estimate D2E/DX2                !
 ! A7    A(1,4,5)              115.0659         estimate D2E/DX2                !
 ! A8    A(1,4,9)              124.3704         estimate D2E/DX2                !
 ! A9    A(5,4,9)              120.5531         estimate D2E/DX2                !
 ! A10   A(4,5,6)              112.2572         estimate D2E/DX2                !
 ! A11   A(4,5,7)              110.2897         estimate D2E/DX2                !
 ! A12   A(4,5,8)              110.4676         estimate D2E/DX2                !
 ! A13   A(6,5,7)              107.5785         estimate D2E/DX2                !
 ! A14   A(6,5,8)              107.5426         estimate D2E/DX2                !
 ! A15   A(7,5,8)              108.5703         estimate D2E/DX2                !
 ! A16   A(4,9,10)             118.5818         estimate D2E/DX2                !
 ! A17   A(4,9,11)             127.491          estimate D2E/DX2                !
 ! A18   A(10,9,11)            113.9194         estimate D2E/DX2                !
 ! A19   A(9,11,12)            109.853          estimate D2E/DX2                !
 ! A20   A(9,11,13)            113.5174         estimate D2E/DX2                !
 ! A21   A(9,11,14)            109.4344         estimate D2E/DX2                !
 ! A22   A(12,11,13)           108.4583         estimate D2E/DX2                !
 ! A23   A(12,11,14)           108.1223         estimate D2E/DX2                !
 ! A24   A(13,11,14)           107.2934         estimate D2E/DX2                !
 ! A25   A(16,15,17)           108.329          estimate D2E/DX2                !
 ! A26   A(16,15,18)           107.9703         estimate D2E/DX2                !
 ! A27   A(16,15,19)           110.1004         estimate D2E/DX2                !
 ! A28   A(17,15,18)           106.7822         estimate D2E/DX2                !
 ! A29   A(17,15,19)           110.051          estimate D2E/DX2                !
 ! A30   A(18,15,19)           113.4307         estimate D2E/DX2                !
 ! A31   A(15,19,20)           114.2882         estimate D2E/DX2                !
 ! A32   A(15,19,24)           125.0571         estimate D2E/DX2                !
 ! A33   A(20,19,24)           120.6518         estimate D2E/DX2                !
 ! A34   A(19,20,21)           110.2914         estimate D2E/DX2                !
 ! A35   A(19,20,22)           110.2064         estimate D2E/DX2                !
 ! A36   A(19,20,23)           112.3326         estimate D2E/DX2                !
 ! A37   A(21,20,22)           108.565          estimate D2E/DX2                !
 ! A38   A(21,20,23)           107.6699         estimate D2E/DX2                !
 ! A39   A(22,20,23)           107.649          estimate D2E/DX2                !
 ! A40   A(19,24,25)           118.4406         estimate D2E/DX2                !
 ! A41   A(19,24,26)           127.6032         estimate D2E/DX2                !
 ! A42   A(25,24,26)           113.9489         estimate D2E/DX2                !
 ! A43   A(1,26,24)            111.408          estimate D2E/DX2                !
 ! A44   A(1,26,27)            110.0591         estimate D2E/DX2                !
 ! A45   A(1,26,28)            110.3521         estimate D2E/DX2                !
 ! A46   A(24,26,27)           107.7515         estimate D2E/DX2                !
 ! A47   A(24,26,28)           111.5316         estimate D2E/DX2                !
 ! A48   A(27,26,28)           105.5368         estimate D2E/DX2                !
 ! D1    D(2,1,4,5)           -151.4128         estimate D2E/DX2                !
 ! D2    D(2,1,4,9)             27.4067         estimate D2E/DX2                !
 ! D3    D(3,1,4,5)            -36.6429         estimate D2E/DX2                !
 ! D4    D(3,1,4,9)            142.1766         estimate D2E/DX2                !
 ! D5    D(26,1,4,5)            85.474          estimate D2E/DX2                !
 ! D6    D(26,1,4,9)           -95.7065         estimate D2E/DX2                !
 ! D7    D(2,1,26,24)           56.9399         estimate D2E/DX2                !
 ! D8    D(2,1,26,27)          176.398          estimate D2E/DX2                !
 ! D9    D(2,1,26,28)          -67.5244         estimate D2E/DX2                !
 ! D10   D(3,1,26,24)          -58.0242         estimate D2E/DX2                !
 ! D11   D(3,1,26,27)           61.4339         estimate D2E/DX2                !
 ! D12   D(3,1,26,28)          177.5114         estimate D2E/DX2                !
 ! D13   D(4,1,26,24)         -179.5675         estimate D2E/DX2                !
 ! D14   D(4,1,26,27)          -60.1094         estimate D2E/DX2                !
 ! D15   D(4,1,26,28)           55.9682         estimate D2E/DX2                !
 ! D16   D(1,4,5,6)            179.4412         estimate D2E/DX2                !
 ! D17   D(1,4,5,7)             59.4929         estimate D2E/DX2                !
 ! D18   D(1,4,5,8)            -60.5338         estimate D2E/DX2                !
 ! D19   D(9,4,5,6)              0.5726         estimate D2E/DX2                !
 ! D20   D(9,4,5,7)           -119.3756         estimate D2E/DX2                !
 ! D21   D(9,4,5,8)            120.5977         estimate D2E/DX2                !
 ! D22   D(1,4,9,10)          -178.5952         estimate D2E/DX2                !
 ! D23   D(1,4,9,11)             2.49           estimate D2E/DX2                !
 ! D24   D(5,4,9,10)             0.1631         estimate D2E/DX2                !
 ! D25   D(5,4,9,11)          -178.7518         estimate D2E/DX2                !
 ! D26   D(4,9,11,12)         -113.6912         estimate D2E/DX2                !
 ! D27   D(4,9,11,13)            7.926          estimate D2E/DX2                !
 ! D28   D(4,9,11,14)          127.749          estimate D2E/DX2                !
 ! D29   D(10,9,11,12)          67.3513         estimate D2E/DX2                !
 ! D30   D(10,9,11,13)        -171.0316         estimate D2E/DX2                !
 ! D31   D(10,9,11,14)         -51.2085         estimate D2E/DX2                !
 ! D32   D(16,15,19,20)         66.5563         estimate D2E/DX2                !
 ! D33   D(16,15,19,24)       -114.0573         estimate D2E/DX2                !
 ! D34   D(17,15,19,20)        -52.7871         estimate D2E/DX2                !
 ! D35   D(17,15,19,24)        126.5994         estimate D2E/DX2                !
 ! D36   D(18,15,19,20)       -172.3355         estimate D2E/DX2                !
 ! D37   D(18,15,19,24)          7.0509         estimate D2E/DX2                !
 ! D38   D(15,19,20,21)         60.2551         estimate D2E/DX2                !
 ! D39   D(15,19,20,22)        -59.599          estimate D2E/DX2                !
 ! D40   D(15,19,20,23)       -179.6294         estimate D2E/DX2                !
 ! D41   D(24,19,20,21)       -119.1611         estimate D2E/DX2                !
 ! D42   D(24,19,20,22)        120.9849         estimate D2E/DX2                !
 ! D43   D(24,19,20,23)          0.9544         estimate D2E/DX2                !
 ! D44   D(15,19,24,25)       -178.8335         estimate D2E/DX2                !
 ! D45   D(15,19,24,26)          2.2191         estimate D2E/DX2                !
 ! D46   D(20,19,24,25)          0.5165         estimate D2E/DX2                !
 ! D47   D(20,19,24,26)       -178.431          estimate D2E/DX2                !
 ! D48   D(19,24,26,1)        -103.3696         estimate D2E/DX2                !
 ! D49   D(19,24,26,27)        135.8109         estimate D2E/DX2                !
 ! D50   D(19,24,26,28)         20.4288         estimate D2E/DX2                !
 ! D51   D(25,24,26,1)          77.6431         estimate D2E/DX2                !
 ! D52   D(25,24,26,27)        -43.1764         estimate D2E/DX2                !
 ! D53   D(25,24,26,28)       -158.5585         estimate D2E/DX2                !
 --------------------------------------------------------------------------------
 Trust Radius=3.00D-01 FncErr=1.00D-07 GrdErr=1.00D-07 EigMax=2.50D+02 EigMin=1.00D-04
 Number of steps in this run=    138 maximum allowed number of steps=    168.
 GradGradGradGradGradGradGradGradGradGradGradGradGradGradGradGradGradGrad

 Leave Link  103 at Fri Sep 17 13:32:36 2021, MaxMem=   524288000 cpu:               0.0 elap:               0.0
 (Enter /opt/gaussian/g16_legacy/l202.exe)
                          Input orientation:                          
 ---------------------------------------------------------------------
 Center     Atomic      Atomic             Coordinates (Angstroms)
 Number     Number       Type             X           Y           Z
 ---------------------------------------------------------------------
      1          6           0        0.681300    0.129000   -0.983700
      2          1           0        0.544100    1.125000   -0.546000
      3          1           0        0.447300    0.255200   -2.049400
      4          6           0        2.121300   -0.320300   -0.844500
      5          6           0        2.601300   -1.266500   -1.915000
      6          1           0        3.649000   -1.553500   -1.775600
      7          1           0        2.514900   -0.799200   -2.901300
      8          1           0        2.004500   -2.184000   -1.910500
      9          6           0        2.954800    0.088400    0.132600
     10          1           0        3.981200   -0.277700    0.129300
     11          6           0        2.638600    0.997100    1.278200
     12          1           0        3.196600    1.932600    1.175400
     13          1           0        1.576300    1.235800    1.364800
     14          1           0        2.942600    0.520500    2.215900
     15          6           0       -2.091000    0.490800    1.836200
     16          1           0       -2.643000   -0.128900    2.550100
     17          1           0       -2.304200    1.542600    2.056100
     18          1           0       -1.023900    0.341300    2.014800
     19          6           0       -2.514000    0.161800    0.431000
     20          6           0       -3.938800    0.531300    0.110200
     21          1           0       -4.088400    1.609000    0.232800
     22          1           0       -4.626100    0.005400    0.781000
     23          1           0       -4.214600    0.272200   -0.917500
     24          6           0       -1.723700   -0.402500   -0.503100
     25          1           0       -2.137200   -0.576700   -1.496600
     26          6           0       -0.298300   -0.860900   -0.345400
     27          1           0       -0.207600   -1.843200   -0.826200
     28          1           0       -0.042900   -1.024600    0.706600
 ---------------------------------------------------------------------
                    Distance matrix (angstroms):
                    1          2          3          4          5
     1  C    0.000000
     2  H    1.096550   0.000000
     3  H    1.098362   1.739579   0.000000
     4  C    1.514875   2.159989   2.141322   0.000000
     5  C    2.549733   3.438823   2.640710   1.507204   0.000000
     6  H    3.502164   4.280967   3.687444   2.172924   1.095206
     7  H    2.810842   3.624091   2.472340   2.148184   1.094816
     8  H    2.821309   3.865761   2.897216   2.150204   1.094530
     9  C    2.533096   2.710445   3.328138   1.347769   2.480601
    10  H    3.506211   3.773229   4.185590   2.099840   2.657256
    11  C    3.114613   2.780467   4.052793   2.551274   3.914307
    12  H    3.773781   3.263616   4.557593   3.211203   4.487671
    13  H    2.746176   2.174597   3.727329   2.756715   4.250790
    14  H    3.937536   3.707602   4.948706   3.278342   4.513778
    15  C    3.970942   3.608440   4.647189   5.058410   6.259176
    16  H    4.858521   4.616894   5.554538   5.853076   6.980969
    17  H    4.489082   3.880480   5.107179   5.609717   6.908300
    18  H    3.455978   3.103306   4.323143   4.301813   5.583048
    19  C    3.494624   3.351755   3.863988   4.831700   5.806036
    20  C    4.764849   4.569406   4.896731   6.193665   7.078589
    21  H    5.140069   4.722377   5.254882   6.591142   7.591682
    22  H    5.594456   5.453934   5.814891   6.948074   7.818021
    23  H    4.898441   4.848763   4.797374   6.363962   7.058264
    24  C    2.509481   2.734596   2.745333   3.861002   4.630938
    25  H    2.950427   3.314935   2.770792   4.315762   4.806690
    26  C    1.531974   2.166490   2.169151   2.528995   3.322023
    27  H    2.168991   3.074699   2.515630   2.782685   3.067244
    28  H    2.170800   2.556239   3.077941   2.754217   3.731366
                    6          7          8          9         10
     6  H    0.000000
     7  H    1.767018   0.000000
     8  H    1.766383   1.777601   0.000000
     9  C    2.611317   3.191535   3.200176   0.000000
    10  H    2.316607   3.406836   3.420834   1.089742   0.000000
    11  C    4.105139   4.550848   4.548548   1.496034   2.178913
    12  H    4.589767   4.954486   5.281125   2.132363   2.568141
    13  H    4.683844   4.818901   4.754574   2.176030   3.098497
    14  H    4.553301   5.301912   5.022104   2.127674   2.463679
    15  C    7.083210   6.732185   6.161610   5.340812   6.354189
    16  H    7.767267   7.534653   6.761630   6.101384   7.054250
    17  H    7.727118   7.299559   6.941639   5.785467   6.821459
    18  H    6.308201   6.163756   5.563841   4.408706   5.384171
    19  C    6.767120   6.108812   5.603770   5.477427   6.517040
    20  C    8.091807   7.244971   6.839510   6.907849   7.961234
    21  H    8.596653   7.695816   7.490261   7.206173   8.287870
    22  H    8.800208   8.074689   7.483482   7.609031   8.636578
    23  H    8.118234   7.097149   6.759894   7.248227   8.280659
    24  C    5.640032   4.886150   4.365088   4.746942   5.741201
    25  H    5.874699   4.864640   4.461884   5.387496   6.337805
    26  C    4.255155   3.801385   3.082697   3.422326   4.345064
    27  H    3.982292   3.578824   2.487014   3.827682   4.572725
    28  H    4.480087   4.428328   3.519271   3.248761   4.133342
                   11         12         13         14         15
    11  C    0.000000
    12  H    1.094117   0.000000
    13  H    1.092226   1.773915   0.000000
    14  H    1.094918   1.772338   1.761477   0.000000
    15  C    4.789240   5.520340   3.771781   5.047988   0.000000
    16  H    5.548054   6.343541   4.590189   5.633146   1.094708
    17  H    5.033286   5.584490   3.953518   5.347816   1.095488
    18  H    3.792962   4.587968   2.825539   3.975635   1.092223
    19  C    5.288172   6.025016   4.330821   5.752305   1.503914
    20  C    6.696520   7.349301   5.699708   7.196371   2.528850
    21  H    6.835189   7.352852   5.788742   7.385965   2.794793
    22  H    7.348914   8.066244   6.350155   7.720718   2.788511
    23  H    7.232768   7.878010   6.298567   7.816992   3.484297
    24  C    4.915442   5.699071   4.130748   5.478982   2.530853
    25  H    5.743224   6.471908   5.026216   6.386773   3.499892
    26  C    3.835834   4.725548   3.291665   4.355681   3.130534
    27  H    4.538354   5.463666   4.178878   4.976466   4.010377
    28  H    3.406529   4.411254   2.857349   3.684906   2.786960
                   16         17         18         19         20
    16  H    0.000000
    17  H    1.775594   0.000000
    18  H    1.768932   1.756131   0.000000
    19  C    2.142833   2.142796   2.181981   0.000000
    20  C    2.840435   2.735173   3.487154   1.506485   0.000000
    21  H    3.237183   2.551902   3.764804   2.147651   1.094919
    22  H    2.660909   3.062692   3.822425   2.146608   1.094954
    23  H    3.828192   3.755774   4.334019   2.173173   1.095156
    24  C    3.200312   3.266481   2.717127   1.347424   2.480884
    25  H    4.102699   4.140169   3.796326   2.098333   2.656169
    26  C    3.797020   3.945586   2.746329   2.560867   3.924160
    27  H    4.502155   4.915997   3.675550   3.304551   4.520724
    28  H    3.310784   3.677655   2.130594   2.754966   4.237282
                   21         22         23         24         25
    21  H    0.000000
    22  H    1.777970   0.000000
    23  H    1.768092   1.767885   0.000000
    24  C    3.190531   3.199878   2.613720   0.000000
    25  H    3.402248   3.423584   2.317667   1.090124   0.000000
    26  C    4.560656   4.555119   4.116870   1.505578   2.188055
    27  H    5.300922   5.052084   4.532031   2.116263   2.403500
    28  H    4.850403   4.698101   4.660737   2.162284   3.072588
                   26         27         28
    26  C    0.000000
    27  H    1.097410   0.000000
    28  H    1.094866   1.745482   0.000000
 Stoichiometry    C10H18
 Framework group  C1[X(C10H18)]
 Deg. of freedom    78
 Full point group                 C1      NOp   1
 Largest Abelian subgroup         C1      NOp   1
 Largest concise Abelian subgroup C1      NOp   1
                         Standard orientation:                         
 ---------------------------------------------------------------------
 Center     Atomic      Atomic             Coordinates (Angstroms)
 Number     Number       Type             X           Y           Z
 ---------------------------------------------------------------------
      1          6           0       -0.793762   -0.586501    0.589188
      2          1           0       -0.484572    0.235282    1.246072
      3          1           0       -0.746056   -1.484336    1.220074
      4          6           0       -2.220911   -0.386930    0.122000
      5          6           0       -2.975673   -1.655004   -0.184573
      6          1           0       -4.003280   -1.458171   -0.508237
      7          1           0       -3.025318   -2.291684    0.704694
      8          1           0       -2.478711   -2.212213   -0.984912
      9          6           0       -2.820159    0.813947   -0.001604
     10          1           0       -3.860399    0.846725   -0.324655
     11          6           0       -2.215674    2.161843    0.234814
     12          1           0       -2.690777    2.635744    1.098983
     13          1           0       -1.137392    2.131939    0.406197
     14          1           0       -2.388708    2.797220   -0.639943
     15          6           0        2.465972    1.425912   -0.456141
     16          1           0        3.076380    1.626108   -1.342543
     17          1           0        2.815364    2.072765    0.356015
     18          1           0        1.439672    1.725932   -0.678960
     19          6           0        2.593404   -0.018250   -0.056249
     20          6           0        3.965069   -0.407944    0.429726
     21          1           0        4.237040    0.181243    1.311621
     22          1           0        4.709067   -0.227479   -0.353105
     23          1           0        4.023648   -1.466088    0.705887
     24          6           0        1.596311   -0.923602   -0.097404
     25          1           0        1.804003   -1.940208    0.236883
     26          6           0        0.185936   -0.715577   -0.581485
     27          1           0       -0.084252   -1.577161   -1.205167
     28          1           0        0.111206    0.157022   -1.238537
 ---------------------------------------------------------------------
 Rotational constants (GHZ):           2.2181193           0.5802381           0.4854296
 Leave Link  202 at Fri Sep 17 13:32:36 2021, MaxMem=   524288000 cpu:               0.0 elap:               0.0
 (Enter /opt/gaussian/g16_legacy/l301.exe)
 Standard basis: 6-31G(d,p) (6D, 7F)
 Ernie: Thresh=  0.10000D-02 Tol=  0.10000D-05 Strict=F.
 There are   240 symmetry adapted cartesian basis functions of A   symmetry.
 There are   240 symmetry adapted basis functions of A   symmetry.
   240 basis functions,   406 primitive gaussians,   240 cartesian basis functions
    39 alpha electrons       39 beta electrons
       nuclear repulsion energy       516.4369545546 Hartrees.
 IExCor=    0 DFT=F Ex=HF Corr=None ExCW=0 ScaHFX=  1.000000
 ScaDFX=  1.000000  1.000000  1.000000  1.000000 ScalE2=  1.000000  1.000000
 IRadAn=      5 IRanWt=     -1 IRanGd=            0 ICorTp=0 IEmpDi=  4
 NAtoms=   28 NActive=   28 NUniq=   28 SFac= 1.00D+00 NAtFMM=   60 NAOKFM=F Big=F
 Integral buffers will be    131072 words long.
 Raffenetti 1 integral format.
 Two-electron integral symmetry is turned on.
 Leave Link  301 at Fri Sep 17 13:32:36 2021, MaxMem=   524288000 cpu:               0.1 elap:               0.1
 (Enter /opt/gaussian/g16_legacy/l302.exe)
 NPDir=0 NMtPBC=     1 NCelOv=     1 NCel=       1 NClECP=     1 NCelD=      1
         NCelK=      1 NCelE2=     1 NClLst=     1 CellRange=     0.0.
 One-electron integrals computed using PRISM.
 One-electron integral symmetry used in STVInt
 NBasis=   240 RedAO= T EigKep=  2.10D-03  NBF=   240
 NBsUse=   240 1.00D-06 EigRej= -1.00D+00 NBFU=   240
 Leave Link  302 at Fri Sep 17 13:32:36 2021, MaxMem=   524288000 cpu:               0.3 elap:               0.4
 (Enter /opt/gaussian/g16_legacy/l303.exe)
 DipDrv:  MaxL=1.
 Leave Link  303 at Fri Sep 17 13:32:37 2021, MaxMem=   524288000 cpu:               0.1 elap:               0.3
 (Enter /opt/gaussian/g16_legacy/l401.exe)
 ExpMin= 1.61D-01 ExpMax= 3.05D+03 ExpMxC= 4.57D+02 IAcc=3 IRadAn=         5 AccDes= 0.00D+00
 Harris functional with IExCor=  205 and IRadAn=       5 diagonalized for initial guess.
 HarFok:  IExCor=  205 AccDes= 0.00D+00 IRadAn=         5 IDoV= 1 UseB2=F ITyADJ=14
 ICtDFT=  3500011 ScaDFX=  1.000000  1.000000  1.000000  1.000000
 FoFCou: FMM=F IPFlag=           0 FMFlag=      100000 FMFlg1=           0
         NFxFlg=           0 DoJE=T BraDBF=F KetDBF=T FulRan=T
         wScrn=  0.000000 ICntrl=       500 IOpCl=  0 I1Cent=   200000004 NGrid=           0
         NMat0=    1 NMatS0=      1 NMatT0=    0 NMatD0=    1 NMtDS0=    0 NMtDT0=    0
 Petite list used in FoFCou.
 Harris En= -390.109905225132    
 JPrj=0 DoOrth=F DoCkMO=F.
 Leave Link  401 at Fri Sep 17 13:32:49 2021, MaxMem=   524288000 cpu:              11.1 elap:              12.2
 (Enter /opt/gaussian/g16_legacy/l502.exe)
 Keep R1 ints in memory in canonical form, NReq=425198025.
 FoFCou: FMM=F IPFlag=           0 FMFlag=           0 FMFlg1=           0
         NFxFlg=           0 DoJE=F BraDBF=F KetDBF=F FulRan=T
         wScrn=  0.000000 ICntrl=       600 IOpCl=  0 I1Cent=           0 NGrid=           0
         NMat0=    1 NMatS0=  28920 NMatT0=    0 NMatD0=    1 NMtDS0=    0 NMtDT0=    0
 Symmetry not used in FoFCou.
 Two-electron integral symmetry not used.
 Closed shell SCF:
 Using DIIS extrapolation, IDIIS=  1040.
 NGot=   524288000 LenX=   105970886 LenY=   105912845
 Requested convergence on RMS density matrix=1.00D-08 within 128 cycles.
 Requested convergence on MAX density matrix=1.00D-06.
 Requested convergence on             energy=1.00D-06.
 No special actions if energy rises.

 Cycle   1  Pass 1  IDiag  1:
 E= -388.533170111318    
 DIIS: error= 5.21D-02 at cycle   1 NSaved=   1.
 NSaved= 1 IEnMin= 1 EnMin= -388.533170111318     IErMin= 1 ErrMin= 5.21D-02
 ErrMax= 5.21D-02  0.00D+00 EMaxC= 1.00D-01 BMatC= 8.07D-01 BMatP= 8.07D-01
 IDIUse=3 WtCom= 4.79D-01 WtEn= 5.21D-01
 Coeff-Com:  0.100D+01
 Coeff-En:   0.100D+01
 Coeff:      0.100D+01
 Gap=     0.508 Goal=   None    Shift=    0.000
 GapD=    0.508 DampG=2.000 DampE=0.500 DampFc=1.0000 IDamp=-1.
 RMSDP=4.00D-03 MaxDP=1.14D-01              OVMax= 1.33D-01

 Cycle   2  Pass 1  IDiag  1:
 E= -389.073871771905     Delta-E=       -0.540701660587 Rises=F Damp=F
 DIIS: error= 1.59D-02 at cycle   2 NSaved=   2.
 NSaved= 2 IEnMin= 2 EnMin= -389.073871771905     IErMin= 2 ErrMin= 1.59D-02
 ErrMax= 1.59D-02  0.00D+00 EMaxC= 1.00D-01 BMatC= 8.66D-02 BMatP= 8.07D-01
 IDIUse=3 WtCom= 8.41D-01 WtEn= 1.59D-01
 Coeff-Com:  0.183D+00 0.817D+00
 Coeff-En:   0.000D+00 0.100D+01
 Coeff:      0.154D+00 0.846D+00
 Gap=     0.549 Goal=   None    Shift=    0.000
 RMSDP=1.63D-03 MaxDP=3.04D-02 DE=-5.41D-01 OVMax= 4.61D-02

 Cycle   3  Pass 1  IDiag  1:
 E= -389.151435118291     Delta-E=       -0.077563346386 Rises=F Damp=F
 DIIS: error= 3.43D-03 at cycle   3 NSaved=   3.
 NSaved= 3 IEnMin= 3 EnMin= -389.151435118291     IErMin= 3 ErrMin= 3.43D-03
 ErrMax= 3.43D-03  0.00D+00 EMaxC= 1.00D-01 BMatC= 3.14D-03 BMatP= 8.66D-02
 IDIUse=3 WtCom= 9.66D-01 WtEn= 3.43D-02
 Coeff-Com: -0.245D-01 0.106D+00 0.919D+00
 Coeff-En:   0.000D+00 0.000D+00 0.100D+01
 Coeff:     -0.236D-01 0.102D+00 0.921D+00
 Gap=     0.499 Goal=   None    Shift=    0.000
 RMSDP=2.59D-04 MaxDP=7.14D-03 DE=-7.76D-02 OVMax= 1.01D-02

 Cycle   4  Pass 1  IDiag  1:
 E= -389.155060923058     Delta-E=       -0.003625804767 Rises=F Damp=F
 DIIS: error= 5.31D-04 at cycle   4 NSaved=   4.
 NSaved= 4 IEnMin= 4 EnMin= -389.155060923058     IErMin= 4 ErrMin= 5.31D-04
 ErrMax= 5.31D-04  0.00D+00 EMaxC= 1.00D-01 BMatC= 9.28D-05 BMatP= 3.14D-03
 IDIUse=3 WtCom= 9.95D-01 WtEn= 5.31D-03
 Coeff-Com: -0.424D-02-0.189D-02 0.949D-01 0.911D+00
 Coeff-En:   0.000D+00 0.000D+00 0.000D+00 0.100D+01
 Coeff:     -0.421D-02-0.188D-02 0.944D-01 0.912D+00
 Gap=     0.499 Goal=   None    Shift=    0.000
 RMSDP=7.39D-05 MaxDP=1.49D-03 DE=-3.63D-03 OVMax= 3.14D-03

 Cycle   5  Pass 1  IDiag  1:
 E= -389.155185250718     Delta-E=       -0.000124327661 Rises=F Damp=F
 DIIS: error= 1.63D-04 at cycle   5 NSaved=   5.
 NSaved= 5 IEnMin= 5 EnMin= -389.155185250718     IErMin= 5 ErrMin= 1.63D-04
 ErrMax= 1.63D-04  0.00D+00 EMaxC= 1.00D-01 BMatC= 1.60D-05 BMatP= 9.28D-05
 IDIUse=3 WtCom= 9.98D-01 WtEn= 1.63D-03
 Coeff-Com:  0.241D-02-0.152D-01-0.102D+00 0.176D+00 0.939D+00
 Coeff-En:   0.000D+00 0.000D+00 0.000D+00 0.000D+00 0.100D+01
 Coeff:      0.241D-02-0.152D-01-0.102D+00 0.175D+00 0.939D+00
 Gap=     0.500 Goal=   None    Shift=    0.000
 RMSDP=3.00D-05 MaxDP=6.56D-04 DE=-1.24D-04 OVMax= 9.23D-04

 Cycle   6  Pass 1  IDiag  1:
 E= -389.155206730213     Delta-E=       -0.000021479495 Rises=F Damp=F
 DIIS: error= 3.58D-05 at cycle   6 NSaved=   6.
 NSaved= 6 IEnMin= 6 EnMin= -389.155206730213     IErMin= 6 ErrMin= 3.58D-05
 ErrMax= 3.58D-05  0.00D+00 EMaxC= 1.00D-01 BMatC= 5.50D-07 BMatP= 1.60D-05
 IDIUse=1 WtCom= 1.00D+00 WtEn= 0.00D+00
 Coeff-Com:  0.720D-03-0.335D-02-0.261D-01-0.434D-02 0.177D+00 0.856D+00
 Coeff:      0.720D-03-0.335D-02-0.261D-01-0.434D-02 0.177D+00 0.856D+00
 Gap=     0.500 Goal=   None    Shift=    0.000
 RMSDP=5.30D-06 MaxDP=1.61D-04 DE=-2.15D-05 OVMax= 3.23D-04

 Cycle   7  Pass 1  IDiag  1:
 E= -389.155207571082     Delta-E=       -0.000000840869 Rises=F Damp=F
 DIIS: error= 1.03D-05 at cycle   7 NSaved=   7.
 NSaved= 7 IEnMin= 7 EnMin= -389.155207571082     IErMin= 7 ErrMin= 1.03D-05
 ErrMax= 1.03D-05  0.00D+00 EMaxC= 1.00D-01 BMatC= 5.44D-08 BMatP= 5.50D-07
 IDIUse=1 WtCom= 1.00D+00 WtEn= 0.00D+00
 Coeff-Com: -0.494D-04 0.463D-03 0.301D-02-0.105D-01-0.468D-01 0.145D+00
 Coeff-Com:  0.909D+00
 Coeff:     -0.494D-04 0.463D-03 0.301D-02-0.105D-01-0.468D-01 0.145D+00
 Coeff:      0.909D+00
 Gap=     0.500 Goal=   None    Shift=    0.000
 RMSDP=1.71D-06 MaxDP=4.09D-05 DE=-8.41D-07 OVMax= 8.41D-05

 Cycle   8  Pass 1  IDiag  1:
 E= -389.155207659992     Delta-E=       -0.000000088910 Rises=F Damp=F
 DIIS: error= 3.51D-06 at cycle   8 NSaved=   8.
 NSaved= 8 IEnMin= 8 EnMin= -389.155207659992     IErMin= 8 ErrMin= 3.51D-06
 ErrMax= 3.51D-06  0.00D+00 EMaxC= 1.00D-01 BMatC= 5.09D-09 BMatP= 5.44D-08
 IDIUse=1 WtCom= 1.00D+00 WtEn= 0.00D+00
 Coeff-Com: -0.581D-04 0.249D-03 0.208D-02 0.315D-02-0.171D-01-0.804D-01
 Coeff-Com: -0.123D+00 0.121D+01
 Coeff:     -0.581D-04 0.249D-03 0.208D-02 0.315D-02-0.171D-01-0.804D-01
 Coeff:     -0.123D+00 0.121D+01
 Gap=     0.500 Goal=   None    Shift=    0.000
 RMSDP=7.85D-07 MaxDP=2.41D-05 DE=-8.89D-08 OVMax= 5.81D-05

 Cycle   9  Pass 1  IDiag  1:
 E= -389.155207675851     Delta-E=       -0.000000015859 Rises=F Damp=F
 DIIS: error= 1.46D-06 at cycle   9 NSaved=   9.
 NSaved= 9 IEnMin= 9 EnMin= -389.155207675851     IErMin= 9 ErrMin= 1.46D-06
 ErrMax= 1.46D-06  0.00D+00 EMaxC= 1.00D-01 BMatC= 7.38D-10 BMatP= 5.09D-09
 IDIUse=1 WtCom= 1.00D+00 WtEn= 0.00D+00
 Coeff-Com:  0.929D-05-0.690D-04-0.480D-03 0.144D-02 0.385D-02 0.101D-03
 Coeff-Com: -0.865D-01-0.120D+00 0.120D+01
 Coeff:      0.929D-05-0.690D-04-0.480D-03 0.144D-02 0.385D-02 0.101D-03
 Coeff:     -0.865D-01-0.120D+00 0.120D+01
 Gap=     0.500 Goal=   None    Shift=    0.000
 RMSDP=2.99D-07 MaxDP=1.24D-05 DE=-1.59D-08 OVMax= 2.71D-05

 Cycle  10  Pass 1  IDiag  1:
 E= -389.155207678271     Delta-E=       -0.000000002419 Rises=F Damp=F
 DIIS: error= 3.97D-07 at cycle  10 NSaved=  10.
 NSaved=10 IEnMin=10 EnMin= -389.155207678271     IErMin=10 ErrMin= 3.97D-07
 ErrMax= 3.97D-07  0.00D+00 EMaxC= 1.00D-01 BMatC= 1.21D-10 BMatP= 7.38D-10
 IDIUse=1 WtCom= 1.00D+00 WtEn= 0.00D+00
 Coeff-Com:  0.951D-05-0.464D-04-0.369D-03-0.135D-03 0.233D-02 0.142D-01
 Coeff-Com:  0.596D-02-0.211D+00 0.143D+00 0.105D+01
 Coeff:      0.951D-05-0.464D-04-0.369D-03-0.135D-03 0.233D-02 0.142D-01
 Coeff:      0.596D-02-0.211D+00 0.143D+00 0.105D+01
 Gap=     0.500 Goal=   None    Shift=    0.000
 RMSDP=1.24D-07 MaxDP=3.07D-06 DE=-2.42D-09 OVMax= 9.87D-06

 Cycle  11  Pass 1  IDiag  1:
 E= -389.155207678584     Delta-E=       -0.000000000313 Rises=F Damp=F
 DIIS: error= 1.55D-07 at cycle  11 NSaved=  11.
 NSaved=11 IEnMin=11 EnMin= -389.155207678584     IErMin=11 ErrMin= 1.55D-07
 ErrMax= 1.55D-07  0.00D+00 EMaxC= 1.00D-01 BMatC= 9.53D-12 BMatP= 1.21D-10
 IDIUse=1 WtCom= 1.00D+00 WtEn= 0.00D+00
 Coeff-Com:  0.393D-06 0.842D-06 0.104D-05-0.149D-03-0.305D-03 0.277D-02
 Coeff-Com:  0.110D-01-0.153D-01-0.107D+00 0.164D+00 0.945D+00
 Coeff:      0.393D-06 0.842D-06 0.104D-05-0.149D-03-0.305D-03 0.277D-02
 Coeff:      0.110D-01-0.153D-01-0.107D+00 0.164D+00 0.945D+00
 Gap=     0.500 Goal=   None    Shift=    0.000
 RMSDP=2.76D-08 MaxDP=1.16D-06 DE=-3.13D-10 OVMax= 2.51D-06

 Cycle  12  Pass 1  IDiag  1:
 E= -389.155207678608     Delta-E=       -0.000000000025 Rises=F Damp=F
 DIIS: error= 3.64D-08 at cycle  12 NSaved=  12.
 NSaved=12 IEnMin=12 EnMin= -389.155207678608     IErMin=12 ErrMin= 3.64D-08
 ErrMax= 3.64D-08  0.00D+00 EMaxC= 1.00D-01 BMatC= 1.17D-12 BMatP= 9.53D-12
 IDIUse=1 WtCom= 1.00D+00 WtEn= 0.00D+00
 Coeff-Com: -0.102D-05 0.547D-05 0.429D-04 0.323D-05-0.343D-03-0.126D-02
 Coeff-Com:  0.366D-03 0.217D-01-0.321D-01-0.113D+00 0.985D-01 0.103D+01
 Coeff:     -0.102D-05 0.547D-05 0.429D-04 0.323D-05-0.343D-03-0.126D-02
 Coeff:      0.366D-03 0.217D-01-0.321D-01-0.113D+00 0.985D-01 0.103D+01
 Gap=     0.500 Goal=   None    Shift=    0.000
 RMSDP=1.18D-08 MaxDP=3.33D-07 DE=-2.48D-11 OVMax= 8.46D-07

 Cycle  13  Pass 1  IDiag  1:
 E= -389.155207678613     Delta-E=       -0.000000000004 Rises=F Damp=F
 DIIS: error= 1.06D-08 at cycle  13 NSaved=  13.
 NSaved=13 IEnMin=13 EnMin= -389.155207678613     IErMin=13 ErrMin= 1.06D-08
 ErrMax= 1.06D-08  0.00D+00 EMaxC= 1.00D-01 BMatC= 5.47D-14 BMatP= 1.17D-12
 IDIUse=1 WtCom= 1.00D+00 WtEn= 0.00D+00
 Coeff-Com: -0.122D-06 0.462D-06 0.389D-05 0.136D-04-0.170D-04-0.298D-03
 Coeff-Com: -0.849D-03 0.352D-02 0.516D-02-0.213D-01-0.612D-01 0.111D+00
 Coeff-Com:  0.964D+00
 Coeff:     -0.122D-06 0.462D-06 0.389D-05 0.136D-04-0.170D-04-0.298D-03
 Coeff:     -0.849D-03 0.352D-02 0.516D-02-0.213D-01-0.612D-01 0.111D+00
 Coeff:      0.964D+00
 Gap=     0.500 Goal=   None    Shift=    0.000
 RMSDP=2.13D-09 MaxDP=7.02D-08 DE=-4.43D-12 OVMax= 1.05D-07

 SCF Done:  E(RHF) =  -389.155207679     A.U. after   13 cycles
            NFock= 13  Conv=0.21D-08     -V/T= 2.0014
 KE= 3.886260590349D+02 PE=-1.937507827147D+03 EE= 6.432896058794D+02
 Leave Link  502 at Fri Sep 17 13:33:27 2021, MaxMem=   524288000 cpu:              37.7 elap:              37.9
 (Enter /opt/gaussian/g16_legacy/l801.exe)
 ExpMin= 1.61D-01 ExpMax= 3.05D+03 ExpMxC= 4.57D+02 IAcc=3 IRadAn=         5 AccDes= 0.00D+00
 HarFok:  IExCor=  205 AccDes= 0.00D+00 IRadAn=         5 IDoV=-2 UseB2=F ITyADJ=14
 ICtDFT= 12500011 ScaDFX=  1.000000  1.000000  1.000000  1.000000
 Largest valence mixing into a core orbital is  1.98D-04
 Largest core mixing into a valence orbital is  3.52D-05
 Range of M.O.s used for correlation:    11   240
 NBasis=   240 NAE=    39 NBE=    39 NFC=    10 NFV=     0
 NROrb=    230 NOA=    29 NOB=    29 NVA=   201 NVB=   201
 Leave Link  801 at Fri Sep 17 13:33:29 2021, MaxMem=   524288000 cpu:               1.5 elap:               1.5
 (Enter /opt/gaussian/g16_legacy/l906.exe)
 Frozen-core derivative calculation, NFC=  10 NFV=   0.
 FulOut=F Deriv=T AODrv=T NAtomX=    28
   MMem=          88  MDisk=          29 MDiskD=          29
  W3Min=     2246400 MinDsk=     2795480 NBas6D=         240
 NBas2D=       29244    NTT=       28920    LW2=     2040000
    MDV=   523626386 MDiskM=       30186 NBas2p=       24383
 Fully direct method using O(ONN) memory.
 IMap=   1   2   3   4   5   6   7   8   9  10  11  12  13  14  15  16  17  18  19  20
 IMap=  21  22  23  24  25  26  27  28  29  30  31  32  33  34  35  36  37  38  39
 JobTyp=1 Pass  1:  I=  11 to  39 NPSUse=  1 ParTrn=F ParDer=F DoDerP=T.
 Spin components of T(2) and E(2):
     alpha-alpha T2 =       0.5715145129D-01 E2=     -0.1638028431D+00
     alpha-beta  T2 =       0.3618145235D+00 E2=     -0.1089337226D+01
     beta-beta   T2 =       0.5715145129D-01 E2=     -0.1638028431D+00
 The integrals were generated   1 times.
 ANorm=    0.1214955730D+01
 E2 =    -0.1416942912D+01 EUMP2 =    -0.39057215059059D+03
 Leave Link  906 at Fri Sep 17 13:38:08 2021, MaxMem=   524288000 cpu:             279.0 elap:             279.0
 (Enter /opt/gaussian/g16_legacy/l1002.exe)
 Minotr:  Closed shell wavefunction.
          Computing MP2/KS-MP2 derivatives.
          Using Z-Vector for PSCF gradient.
          Skipping F1 and S1 gradient terms here.
          IDoAtm=1111111111111111111111111111
          Frozen-core window.
          Direct CPHF calculation.
          Differentiating once with respect to electric field.
                with respect to dipole field.
          Differentiating once with respect to nuclear coordinates.
          Requested convergence is 1.0D-10 RMS, and 1.0D-09 maximum.
          NewPWx=F KeepS1=T KeepF1=T KeepIn=T MapXYZ=F SortEE=F KeepMc=T.
 Keep R1 ints in memory in canonical form, NReq=425201067.
 FoFCou: FMM=F IPFlag=           0 FMFlag=           0 FMFlg1=           0
         NFxFlg=           0 DoJE=F BraDBF=F KetDBF=F FulRan=T
         wScrn=  0.000000 ICntrl=       600 IOpCl=  0 I1Cent=           0 NGrid=           0
         NMat0=    1 NMatS0=  28920 NMatT0=    0 NMatD0=    1 NMtDS0=    0 NMtDT0=    0
 Symmetry not used in FoFCou.
 Two-electron integral symmetry not used.
          MDV=     524288000 using IRadAn=       5.
          Solving linear equations separately, MaxMat=       0.
          There are     1 degrees of freedom in the 1st order CPHF.  IDoFFX=0 NUNeed=     1.
 LinEq1:  Iter=  0 NonCon=     1 RMS=2.55D-03 Max=3.76D-02 NDo=     1
 AX will form     1 AO Fock derivatives at one time.
 LinEq1:  Iter=  1 NonCon=     1 RMS=6.90D-04 Max=9.74D-03 NDo=     1
 LinEq1:  Iter=  2 NonCon=     1 RMS=1.61D-04 Max=4.14D-03 NDo=     1
 LinEq1:  Iter=  3 NonCon=     1 RMS=4.31D-05 Max=5.08D-04 NDo=     1
 LinEq1:  Iter=  4 NonCon=     1 RMS=1.99D-05 Max=8.55D-04 NDo=     1
 LinEq1:  Iter=  5 NonCon=     1 RMS=5.06D-06 Max=8.26D-05 NDo=     1
 LinEq1:  Iter=  6 NonCon=     1 RMS=1.63D-06 Max=2.68D-05 NDo=     1
 LinEq1:  Iter=  7 NonCon=     1 RMS=4.13D-07 Max=4.19D-06 NDo=     1
 LinEq1:  Iter=  8 NonCon=     1 RMS=1.01D-07 Max=1.86D-06 NDo=     1
 LinEq1:  Iter=  9 NonCon=     1 RMS=2.33D-08 Max=6.32D-07 NDo=     1
 LinEq1:  Iter= 10 NonCon=     1 RMS=6.42D-09 Max=1.62D-07 NDo=     1
 LinEq1:  Iter= 11 NonCon=     1 RMS=1.89D-09 Max=3.63D-08 NDo=     1
 LinEq1:  Iter= 12 NonCon=     1 RMS=4.16D-10 Max=7.82D-09 NDo=     1
 LinEq1:  Iter= 13 NonCon=     1 RMS=1.07D-10 Max=9.42D-10 NDo=     1
 LinEq1:  Iter= 14 NonCon=     1 RMS=4.40D-11 Max=1.62D-09 NDo=     1
 LinEq1:  Iter= 15 NonCon=     0 RMS=1.35D-11 Max=1.86D-10 NDo=     1
 Linear equations converged to 1.000D-10 1.000D-09 after    15 iterations.
 End of Minotr F.D. properties file   721 does not exist.
 End of Minotr F.D. properties file   722 does not exist.
 End of Minotr F.D. properties file   788 does not exist.
 Leave Link 1002 at Fri Sep 17 13:38:50 2021, MaxMem=   524288000 cpu:              41.9 elap:              42.0
 (Enter /opt/gaussian/g16_legacy/l601.exe)
 Copying SCF densities to generalized density rwf, IOpCl= 0 IROHF=0.

 **********************************************************************

            Population analysis using the SCF density.

 **********************************************************************

 Orbital symmetries:
       Occupied  (A) (A) (A) (A) (A) (A) (A) (A) (A) (A) (A) (A)
                 (A) (A) (A) (A) (A) (A) (A) (A) (A) (A) (A) (A)
                 (A) (A) (A) (A) (A) (A) (A) (A) (A) (A) (A) (A)
                 (A) (A) (A)
       Virtual   (A) (A) (A) (A) (A) (A) (A) (A) (A) (A) (A) (A)
                 (A) (A) (A) (A) (A) (A) (A) (A) (A) (A) (A) (A)
                 (A) (A) (A) (A) (A) (A) (A) (A) (A) (A) (A) (A)
                 (A) (A) (A) (A) (A) (A) (A) (A) (A) (A) (A) (A)
                 (A) (A) (A) (A) (A) (A) (A) (A) (A) (A) (A) (A)
                 (A) (A) (A) (A) (A) (A) (A) (A) (A) (A) (A) (A)
                 (A) (A) (A) (A) (A) (A) (A) (A) (A) (A) (A) (A)
                 (A) (A) (A) (A) (A) (A) (A) (A) (A) (A) (A) (A)
                 (A) (A) (A) (A) (A) (A) (A) (A) (A) (A) (A) (A)
                 (A) (A) (A) (A) (A) (A) (A) (A) (A) (A) (A) (A)
                 (A) (A) (A) (A) (A) (A) (A) (A) (A) (A) (A) (A)
                 (A) (A) (A) (A) (A) (A) (A) (A) (A) (A) (A) (A)
                 (A) (A) (A) (A) (A) (A) (A) (A) (A) (A) (A) (A)
                 (A) (A) (A) (A) (A) (A) (A) (A) (A) (A) (A) (A)
                 (A) (A) (A) (A) (A) (A) (A) (A) (A) (A) (A) (A)
                 (A) (A) (A) (A) (A) (A) (A) (A) (A) (A) (A) (A)
                 (A) (A) (A) (A) (A) (A) (A) (A) (A)
 The electronic state is 1-A.
 Alpha  occ. eigenvalues --  -11.23060 -11.22505 -11.21999 -11.21921 -11.21883
 Alpha  occ. eigenvalues --  -11.21650 -11.21554 -11.21485 -11.21456 -11.21438
 Alpha  occ. eigenvalues --   -1.10623  -1.08327  -1.01912  -0.98013  -0.93647
 Alpha  occ. eigenvalues --   -0.91775  -0.86755  -0.82685  -0.70599  -0.69342
 Alpha  occ. eigenvalues --   -0.64585  -0.61545  -0.60102  -0.59030  -0.58088
 Alpha  occ. eigenvalues --   -0.56803  -0.55368  -0.55150  -0.53549  -0.51980
 Alpha  occ. eigenvalues --   -0.51716  -0.51320  -0.50592  -0.49229  -0.48275
 Alpha  occ. eigenvalues --   -0.46015  -0.44272  -0.33356  -0.31525
 Alpha virt. eigenvalues --    0.18456   0.19494   0.22038   0.24453   0.25183
 Alpha virt. eigenvalues --    0.27140   0.28394   0.28932   0.30250   0.30504
 Alpha virt. eigenvalues --    0.31237   0.32117   0.33135   0.33436   0.34032
 Alpha virt. eigenvalues --    0.35676   0.35774   0.36970   0.38998   0.40649
 Alpha virt. eigenvalues --    0.41064   0.42594   0.43322   0.44192   0.45150
 Alpha virt. eigenvalues --    0.51684   0.54046   0.61170   0.62446   0.70139
 Alpha virt. eigenvalues --    0.71101   0.71887   0.74280   0.76417   0.76616
 Alpha virt. eigenvalues --    0.76877   0.78795   0.79454   0.81139   0.82036
 Alpha virt. eigenvalues --    0.83812   0.85656   0.88079   0.91266   0.92027
 Alpha virt. eigenvalues --    0.92897   0.95178   0.97057   0.98262   0.99207
 Alpha virt. eigenvalues --    0.99751   1.00203   1.02303   1.03926   1.06183
 Alpha virt. eigenvalues --    1.07863   1.08639   1.08809   1.11198   1.12389
 Alpha virt. eigenvalues --    1.12560   1.13431   1.14581   1.14927   1.15818
 Alpha virt. eigenvalues --    1.16164   1.16405   1.18224   1.18705   1.20090
 Alpha virt. eigenvalues --    1.20660   1.22068   1.22853   1.25019   1.27541
 Alpha virt. eigenvalues --    1.34173   1.40671   1.41851   1.43739   1.45172
 Alpha virt. eigenvalues --    1.47560   1.53474   1.56256   1.56978   1.58249
 Alpha virt. eigenvalues --    1.59848   1.62721   1.65798   1.69519   1.70791
 Alpha virt. eigenvalues --    1.75331   1.82527   1.92034   1.92195   1.95500
 Alpha virt. eigenvalues --    1.98630   2.01126   2.02849   2.04184   2.08702
 Alpha virt. eigenvalues --    2.09243   2.11121   2.11379   2.13102   2.14505
 Alpha virt. eigenvalues --    2.15426   2.17688   2.19727   2.23578   2.27383
 Alpha virt. eigenvalues --    2.28339   2.29995   2.32201   2.34975   2.35569
 Alpha virt. eigenvalues --    2.35647   2.35782   2.39326   2.39852   2.40352
 Alpha virt. eigenvalues --    2.41283   2.41828   2.43036   2.45164   2.45384
 Alpha virt. eigenvalues --    2.47031   2.48341   2.49337   2.50339   2.54526
 Alpha virt. eigenvalues --    2.56587   2.57720   2.61274   2.62184   2.64353
 Alpha virt. eigenvalues --    2.66339   2.67158   2.72032   2.72994   2.73746
 Alpha virt. eigenvalues --    2.75718   2.77697   2.81091   2.82804   2.85160
 Alpha virt. eigenvalues --    2.87730   2.89154   2.91917   2.93439   2.94437
 Alpha virt. eigenvalues --    2.97093   2.99035   3.01164   3.02601   3.05102
 Alpha virt. eigenvalues --    3.05824   3.06634   3.08508   3.13016   3.15941
 Alpha virt. eigenvalues --    3.17141   3.18164   3.19613   3.20681   3.21266
 Alpha virt. eigenvalues --    3.23191   3.24414   3.26463   3.27246   3.36664
 Alpha virt. eigenvalues --    3.39073   3.44607   3.45618   3.55550   3.57294
 Alpha virt. eigenvalues --    3.58694   3.61057   3.66893   3.73956   3.78200
 Alpha virt. eigenvalues --    3.78869   3.80513   3.81327   3.82335   3.82842
 Alpha virt. eigenvalues --    3.84207   3.85749   3.87658   3.89509   3.91172
 Alpha virt. eigenvalues --    3.95899   4.59095   4.62635   4.74429   4.82816
 Alpha virt. eigenvalues --    4.88836   4.92668   4.93352   5.07550   5.10288
 Alpha virt. eigenvalues --    5.16869
          Condensed to atoms (all electrons):
               1          2          3          4          5          6
     1  C    5.001825   0.412355   0.413509   0.340283  -0.058744   0.003676
     2  H    0.412355   0.571680  -0.030226  -0.040529   0.003237  -0.000103
     3  H    0.413509  -0.030226   0.588490  -0.045057  -0.004690   0.000081
     4  C    0.340283  -0.040529  -0.045057   4.955080   0.349335  -0.041410
     5  C   -0.058744   0.003237  -0.004690   0.349335   4.896447   0.406172
     6  H    0.003676  -0.000103   0.000081  -0.041410   0.406172   0.571054
     7  H   -0.003551  -0.000016   0.002570  -0.043058   0.397390  -0.027608
     8  H   -0.000533  -0.000030  -0.000276  -0.045813   0.400282  -0.028080
     9  C   -0.044045  -0.002231   0.001917   0.698849  -0.045927  -0.002737
    10  H    0.003079   0.000060  -0.000114  -0.036532  -0.006482   0.002223
    11  C   -0.007063  -0.002135   0.000138  -0.050687   0.003424   0.000137
    12  H    0.000227   0.000172   0.000028  -0.001412  -0.000116  -0.000004
    13  H   -0.001828  -0.001333   0.000004  -0.000418   0.000092   0.000004
    14  H    0.000232  -0.000034  -0.000010   0.000592  -0.000100  -0.000009
    15  C    0.000597   0.000160  -0.000016  -0.000017  -0.000000  -0.000000
    16  H   -0.000041   0.000014   0.000000   0.000001  -0.000000   0.000000
    17  H    0.000077  -0.000076  -0.000001  -0.000002   0.000000  -0.000000
    18  H   -0.000053  -0.000052  -0.000012  -0.000027  -0.000000   0.000000
    19  C   -0.003608   0.001046   0.000615   0.000006  -0.000002   0.000000
    20  C   -0.000101  -0.000042  -0.000000   0.000002  -0.000000   0.000000
    21  H    0.000022  -0.000005  -0.000001  -0.000000   0.000000  -0.000000
    22  H   -0.000004   0.000001   0.000000   0.000000  -0.000000   0.000000
    23  H   -0.000003  -0.000002   0.000002   0.000000  -0.000000   0.000000
    24  C   -0.063074  -0.000807  -0.000608   0.006131  -0.000158   0.000003
    25  H    0.000004   0.000213   0.001003  -0.000155   0.000010  -0.000000
    26  C    0.326224  -0.039861  -0.044592  -0.057368  -0.000188  -0.000097
    27  H   -0.045134   0.004291  -0.002603  -0.001851  -0.000392  -0.000025
    28  H   -0.040297  -0.002144   0.004202  -0.001438   0.000317  -0.000010
               7          8          9         10         11         12
     1  C   -0.003551  -0.000533  -0.044045   0.003079  -0.007063   0.000227
     2  H   -0.000016  -0.000030  -0.002231   0.000060  -0.002135   0.000172
     3  H    0.002570  -0.000276   0.001917  -0.000114   0.000138   0.000028
     4  C   -0.043058  -0.045813   0.698849  -0.036532  -0.050687  -0.001412
     5  C    0.397390   0.400282  -0.045927  -0.006482   0.003424  -0.000116
     6  H   -0.027608  -0.028080  -0.002737   0.002223   0.000137  -0.000004
     7  H    0.593585  -0.035019  -0.000427   0.000248  -0.000114   0.000021
     8  H   -0.035019   0.594784  -0.001033   0.000123  -0.000100  -0.000005
     9  C   -0.000427  -0.001033   4.939952   0.404865   0.337718  -0.044355
    10  H    0.000248   0.000123   0.404865   0.559369  -0.043635  -0.000222
    11  C   -0.000114  -0.000100   0.337718  -0.043635   4.906220   0.400036
    12  H    0.000021  -0.000005  -0.044355  -0.000222   0.400036   0.584221
    13  H   -0.000001   0.000000  -0.041942   0.003315   0.408021  -0.026850
    14  H   -0.000004   0.000015  -0.042846  -0.002647   0.402999  -0.033282
    15  C   -0.000000  -0.000000   0.000010  -0.000000  -0.000097   0.000002
    16  H    0.000000   0.000000   0.000000   0.000000   0.000002   0.000000
    17  H   -0.000000   0.000000   0.000000  -0.000000  -0.000003  -0.000000
    18  H   -0.000000   0.000000  -0.000032   0.000000   0.000040  -0.000008
    19  C    0.000000   0.000000   0.000001   0.000000   0.000007  -0.000000
    20  C   -0.000000  -0.000000  -0.000000   0.000000  -0.000000   0.000000
    21  H   -0.000000   0.000000  -0.000000  -0.000000   0.000000  -0.000000
    22  H    0.000000   0.000000   0.000000   0.000000  -0.000000   0.000000
    23  H   -0.000000  -0.000000  -0.000000   0.000000   0.000000  -0.000000
    24  C    0.000001  -0.000086   0.000070   0.000002  -0.000032   0.000002
    25  H   -0.000002   0.000012  -0.000002  -0.000000   0.000000   0.000000
    26  C    0.000027   0.000810  -0.004366  -0.000116   0.000690  -0.000050
    27  H    0.000093  -0.000187   0.000514   0.000004  -0.000030  -0.000000
    28  H    0.000012  -0.000009   0.001215  -0.000044   0.000070   0.000023
              13         14         15         16         17         18
     1  C   -0.001828   0.000232   0.000597  -0.000041   0.000077  -0.000053
     2  H   -0.001333  -0.000034   0.000160   0.000014  -0.000076  -0.000052
     3  H    0.000004  -0.000010  -0.000016   0.000000  -0.000001  -0.000012
     4  C   -0.000418   0.000592  -0.000017   0.000001  -0.000002  -0.000027
     5  C    0.000092  -0.000100  -0.000000  -0.000000   0.000000  -0.000000
     6  H    0.000004  -0.000009  -0.000000   0.000000  -0.000000   0.000000
     7  H   -0.000001  -0.000004  -0.000000   0.000000  -0.000000  -0.000000
     8  H    0.000000   0.000015  -0.000000   0.000000   0.000000   0.000000
     9  C   -0.041942  -0.042846   0.000010   0.000000   0.000000  -0.000032
    10  H    0.003315  -0.002647  -0.000000   0.000000  -0.000000   0.000000
    11  C    0.408021   0.402999  -0.000097   0.000002  -0.000003   0.000040
    12  H   -0.026850  -0.033282   0.000002   0.000000  -0.000000  -0.000008
    13  H    0.573890  -0.030018   0.000010  -0.000006   0.000034   0.000570
    14  H   -0.030018   0.586841  -0.000004  -0.000000   0.000000   0.000042
    15  C    0.000010  -0.000004   4.909204   0.398279   0.402438   0.406157
    16  H   -0.000006  -0.000000   0.398279   0.582502  -0.033095  -0.026279
    17  H    0.000034   0.000000   0.402438  -0.033095   0.586226  -0.030013
    18  H    0.000570   0.000042   0.406157  -0.026279  -0.030013   0.568168
    19  C   -0.000013   0.000000   0.348399  -0.043824  -0.043933  -0.037057
    20  C    0.000000  -0.000000  -0.065375  -0.001684  -0.003430   0.003678
    21  H   -0.000000   0.000000  -0.002139  -0.000371   0.002847  -0.000072
    22  H   -0.000000  -0.000000  -0.001105   0.002553  -0.000507  -0.000023
    23  H   -0.000000  -0.000000   0.003695  -0.000079   0.000010  -0.000108
    24  C    0.000003  -0.000004  -0.043321  -0.000841   0.000448  -0.002871
    25  H   -0.000001   0.000000   0.003365  -0.000126  -0.000110   0.000059
    26  C   -0.000212   0.000091  -0.007533   0.000188   0.000286  -0.001943
    27  H   -0.000008   0.000000   0.000169   0.000032  -0.000012   0.000031
    28  H   -0.000252  -0.000079  -0.002064   0.000056  -0.000043  -0.001169
              19         20         21         22         23         24
     1  C   -0.003608  -0.000101   0.000022  -0.000004  -0.000003  -0.063074
     2  H    0.001046  -0.000042  -0.000005   0.000001  -0.000002  -0.000807
     3  H    0.000615  -0.000000  -0.000001   0.000000   0.000002  -0.000608
     4  C    0.000006   0.000002  -0.000000   0.000000   0.000000   0.006131
     5  C   -0.000002  -0.000000   0.000000  -0.000000  -0.000000  -0.000158
     6  H    0.000000   0.000000  -0.000000   0.000000   0.000000   0.000003
     7  H    0.000000  -0.000000  -0.000000   0.000000  -0.000000   0.000001
     8  H    0.000000  -0.000000   0.000000   0.000000  -0.000000  -0.000086
     9  C    0.000001  -0.000000  -0.000000   0.000000  -0.000000   0.000070
    10  H    0.000000   0.000000  -0.000000   0.000000   0.000000   0.000002
    11  C    0.000007  -0.000000   0.000000  -0.000000   0.000000  -0.000032
    12  H   -0.000000   0.000000  -0.000000   0.000000  -0.000000   0.000002
    13  H   -0.000013   0.000000  -0.000000  -0.000000  -0.000000   0.000003
    14  H    0.000000  -0.000000   0.000000  -0.000000  -0.000000  -0.000004
    15  C    0.348399  -0.065375  -0.002139  -0.001105   0.003695  -0.043321
    16  H   -0.043824  -0.001684  -0.000371   0.002553  -0.000079  -0.000841
    17  H   -0.043933  -0.003430   0.002847  -0.000507   0.000010   0.000448
    18  H   -0.037057   0.003678  -0.000072  -0.000023  -0.000108  -0.002871
    19  C    4.918243   0.352278  -0.044301  -0.045767  -0.040395   0.698170
    20  C    0.352278   4.903251   0.396991   0.399261   0.405423  -0.044863
    21  H   -0.044301   0.396991   0.594296  -0.034905  -0.027368  -0.000547
    22  H   -0.045767   0.399261  -0.034905   0.593081  -0.027562  -0.001135
    23  H   -0.040395   0.405423  -0.027368  -0.027562   0.568042  -0.002386
    24  C    0.698170  -0.044863  -0.000547  -0.001135  -0.002386   4.961524
    25  H   -0.036138  -0.006748   0.000235   0.000150   0.002177   0.402015
    26  C   -0.048267   0.003153  -0.000086  -0.000124   0.000146   0.339924
    27  H    0.000914  -0.000102  -0.000002   0.000012  -0.000011  -0.043346
    28  H    0.000823   0.000071  -0.000004   0.000004   0.000006  -0.043812
              25         26         27         28
     1  C    0.000004   0.326224  -0.045134  -0.040297
     2  H    0.000213  -0.039861   0.004291  -0.002144
     3  H    0.001003  -0.044592  -0.002603   0.004202
     4  C   -0.000155  -0.057368  -0.001851  -0.001438
     5  C    0.000010  -0.000188  -0.000392   0.000317
     6  H   -0.000000  -0.000097  -0.000025  -0.000010
     7  H   -0.000002   0.000027   0.000093   0.000012
     8  H    0.000012   0.000810  -0.000187  -0.000009
     9  C   -0.000002  -0.004366   0.000514   0.001215
    10  H   -0.000000  -0.000116   0.000004  -0.000044
    11  C    0.000000   0.000690  -0.000030   0.000070
    12  H    0.000000  -0.000050  -0.000000   0.000023
    13  H   -0.000001  -0.000212  -0.000008  -0.000252
    14  H    0.000000   0.000091   0.000000  -0.000079
    15  C    0.003365  -0.007533   0.000169  -0.002064
    16  H   -0.000126   0.000188   0.000032   0.000056
    17  H   -0.000110   0.000286  -0.000012  -0.000043
    18  H    0.000059  -0.001943   0.000031  -0.001169
    19  C   -0.036138  -0.048267   0.000914   0.000823
    20  C   -0.006748   0.003153  -0.000102   0.000071
    21  H    0.000235  -0.000086  -0.000002  -0.000004
    22  H    0.000150  -0.000124   0.000012   0.000004
    23  H    0.002177   0.000146  -0.000011   0.000006
    24  C    0.402015   0.339924  -0.043346  -0.043812
    25  H    0.558509  -0.041270  -0.003485   0.003230
    26  C   -0.041270   4.982309   0.413772   0.414885
    27  H   -0.003485   0.413772   0.588487  -0.029595
    28  H    0.003230   0.414885  -0.029595   0.571207
 Mulliken charges:
               1
     1  C   -0.234031
     2  H    0.126398
     3  H    0.115648
     4  C    0.015498
     5  C   -0.339904
     6  H    0.116732
     7  H    0.115853
     8  H    0.115142
     9  C   -0.155168
    10  H    0.116501
    11  C   -0.355606
    12  H    0.121572
    13  H    0.116937
    14  H    0.118224
    15  C   -0.350811
    16  H    0.122721
    17  H    0.118859
    18  H    0.120973
    19  C    0.022806
    20  C   -0.341760
    21  H    0.115412
    22  H    0.116069
    23  H    0.118413
    24  C   -0.160403
    25  H    0.117055
    26  C   -0.236433
    27  H    0.118464
    28  H    0.124837
 Sum of Mulliken charges =  -0.00000
 Mulliken charges with hydrogens summed into heavy atoms:
               1
     1  C    0.008015
     4  C    0.015498
     5  C    0.007823
     9  C   -0.038667
    11  C    0.001128
    15  C    0.011742
    19  C    0.022806
    20  C    0.008134
    24  C   -0.043348
    26  C    0.006869
 Electronic spatial extent (au):  <R**2>=           2423.6319
 Charge=              0.0000 electrons
 Dipole moment (field-independent basis, Debye):
    X=              0.2948    Y=              0.1262    Z=             -0.0059  Tot=              0.3208
 Quadrupole moment (field-independent basis, Debye-Ang):
   XX=            -64.5130   YY=            -63.6026   ZZ=            -67.0541
   XY=              0.6113   XZ=              0.8615   YZ=             -0.4856
 Traceless Quadrupole moment (field-independent basis, Debye-Ang):
   XX=              0.5436   YY=              1.4540   ZZ=             -1.9976
   XY=              0.6113   XZ=              0.8615   YZ=             -0.4856
 Octapole moment (field-independent basis, Debye-Ang**2):
  XXX=              1.3680  YYY=             -2.7217  ZZZ=              0.1848  XYY=             -0.5727
  XXY=              4.5353  XXZ=             -2.6504  XZZ=              1.5766  YZZ=              1.2282
  YYZ=              1.3717  XYZ=             -0.7529
 Hexadecapole moment (field-independent basis, Debye-Ang**3):
 XXXX=          -2492.2895 YYYY=           -696.1036 ZZZZ=           -174.8257 XXXY=             -2.3352
 XXXZ=             11.9211 YYYX=             -9.3504 YYYZ=             -3.0521 ZZZX=             -0.8413
 ZZZY=             -0.0660 XXYY=           -530.4585 XXZZ=           -456.3104 YYZZ=           -139.1716
 XXYZ=             -4.2425 YYXZ=              3.1905 ZZXY=              4.7010
 N-N= 5.164369545546D+02 E-N=-1.937507827259D+03  KE= 3.886260590349D+02
 No NMR shielding tensors so no spin-rotation constants.
 Leave Link  601 at Fri Sep 17 13:38:50 2021, MaxMem=   524288000 cpu:               0.3 elap:               0.3
 (Enter /opt/gaussian/g16_legacy/l701.exe)
 ... and contract with generalized density number  2.
 Compute integral first derivatives.
 Leave Link  701 at Fri Sep 17 13:38:50 2021, MaxMem=   524288000 cpu:               0.3 elap:               0.3
 (Enter /opt/gaussian/g16_legacy/l702.exe)
 L702 exits ... SP integral derivatives will be done elsewhere.
 Leave Link  702 at Fri Sep 17 13:38:50 2021, MaxMem=   524288000 cpu:               0.1 elap:               0.1
 (Enter /opt/gaussian/g16_legacy/l703.exe)
 Integral derivatives from FoFJK, PRISM(SPDF).
 Compute integral first derivatives, UseDBF=F ICtDFT=           0.
 Calling FoFJK, ICntrl=  10002127 FMM=F ISym2X=0 I1Cent= 0 IOpClX= 0 NMat=1 NMatS=1 NMatT=0.
 FoFJK:  IHMeth= 1 ICntrl=10002127 DoSepK=F KAlg= 0 I1Cent=           0 FoldK=F
 IRaf=         0 NMat=       1 IRICut=       1 DoRegI=T DoRafI=F ISym2E= 0 IDoP0=0 IntGTp=1.
 FoFCou: FMM=F IPFlag=           0 FMFlag=      100000 FMFlg1=         800
         NFxFlg=           0 DoJE=F BraDBF=F KetDBF=F FulRan=T
         wScrn=  0.000000 ICntrl=  10002127 IOpCl=  0 I1Cent=           0 NGrid=           0
         NMat0=    1 NMatS0=      1 NMatT0=    0 NMatD0=    1 NMtDS0=    0 NMtDT0=    0
 Symmetry not used in FoFCou.
 Leave Link  703 at Fri Sep 17 13:39:24 2021, MaxMem=   524288000 cpu:              33.2 elap:              33.2
 (Enter /opt/gaussian/g16_legacy/l716.exe)
 Dipole        = 9.11085568D-02 6.69203505D-02-4.76131032D-03
 ***** Axes restored to original set *****
 -------------------------------------------------------------------
 Center     Atomic                   Forces (Hartrees/Bohr)
 Number     Number              X              Y              Z
 -------------------------------------------------------------------
      1        6           0.008210313    0.004542938    0.001552704
      2        1          -0.000797186   -0.004366427    0.001437537
      3        1          -0.000117982   -0.002820721    0.002573984
      4        6           0.003935150    0.002809182   -0.004293913
      5        6           0.002942718   -0.001115377    0.000807496
      6        1          -0.003630361    0.001561182    0.001175985
      7        1          -0.001458320   -0.002772031    0.001136387
      8        1           0.000458554    0.001836457   -0.002801132
      9        6          -0.002222918   -0.003032194   -0.000194981
     10        1          -0.002722400   -0.000925820   -0.002144829
     11        6          -0.001581978    0.001180190    0.001907226
     12        1          -0.001264864   -0.000708942    0.003095387
     13        1           0.002690972   -0.000545288   -0.001925865
     14        1           0.000028910    0.003161190   -0.001501345
     15        6           0.004342824   -0.000650003    0.001071304
     16        1           0.000324911    0.003092570    0.000156310
     17        1          -0.001765588   -0.003233098    0.000359638
     18        1          -0.002723508   -0.001165064   -0.001704711
     19        6           0.000190873    0.001337140   -0.005175190
     20        6          -0.000383847   -0.000375110   -0.003391824
     21        1          -0.001872485   -0.002464608    0.001677904
     22        1           0.000305416    0.003329885   -0.000347298
     23        1           0.002624582    0.000192124    0.003496591
     24        6           0.001055970   -0.005023271    0.001114685
     25        1          -0.001411096    0.001977149    0.002405681
     26        6          -0.007558039   -0.001712397    0.001774191
     27        1           0.001980783    0.002764138    0.000182550
     28        1           0.000418597    0.003126205   -0.002444474
 -------------------------------------------------------------------
 Cartesian Forces:  Max     0.008210313 RMS     0.002575608
 Leave Link  716 at Fri Sep 17 13:39:24 2021, MaxMem=   524288000 cpu:               0.1 elap:               0.1
 (Enter /opt/gaussian/g16_legacy/l103.exe)

 GradGradGradGradGradGradGradGradGradGradGradGradGradGradGradGradGradGrad
 Berny optimization.
 FormGI is forming the generalized inverse of G from B-inverse, IUseBI=4.
 Internal  Forces:  Max     0.004876851 RMS     0.001917825
 Search for a local minimum.
 Step number   1 out of a maximum of  138
 All quantities printed in internal units (Hartrees-Bohrs-Radians)
 RMS Force = .19178D-02 SwitMx=.10000D-02 MixMth= 1
 Mixed Optimization -- RFO/linear search
 Second derivative matrix not updated -- first step.
 ITU=  0
     Eigenvalues ---    0.00343   0.00569   0.00671   0.00680   0.00692
     Eigenvalues ---    0.00714   0.00818   0.01219   0.01287   0.01568
     Eigenvalues ---    0.01641   0.02780   0.02784   0.04018   0.04138
     Eigenvalues ---    0.05349   0.05399   0.06978   0.07035   0.07090
     Eigenvalues ---    0.07092   0.07268   0.07301   0.07347   0.07505
     Eigenvalues ---    0.09276   0.09361   0.12766   0.12842   0.15999
     Eigenvalues ---    0.15999   0.16000   0.16000   0.16000   0.16000
     Eigenvalues ---    0.16000   0.16000   0.16000   0.16000   0.16000
     Eigenvalues ---    0.16000   0.16000   0.16000   0.21858   0.21866
     Eigenvalues ---    0.22000   0.22000   0.24994   0.24997   0.24998
     Eigenvalues ---    0.24999   0.29242   0.30866   0.31633   0.31706
     Eigenvalues ---    0.31799   0.31970   0.32797   0.33864   0.33970
     Eigenvalues ---    0.34067   0.34186   0.34218   0.34224   0.34246
     Eigenvalues ---    0.34250   0.34250   0.34256   0.34262   0.34274
     Eigenvalues ---    0.34294   0.34341   0.34557   0.34557   0.34798
     Eigenvalues ---    0.34843   0.55499   0.55573
 RFO step:  Lambda=-2.96073579D-03 EMin= 3.42989681D-03
 Linear search not attempted -- first point.
 Iteration  1 RMS(Cart)=  0.03970394 RMS(Int)=  0.00072392
 Iteration  2 RMS(Cart)=  0.00093557 RMS(Int)=  0.00016659
 Iteration  3 RMS(Cart)=  0.00000043 RMS(Int)=  0.00016659
 ITry= 1 IFail=0 DXMaxC= 1.80D-01 DCOld= 1.00D+10 DXMaxT= 3.00D-01 DXLimC= 3.00D+00 Rises=F
 Variable       Old X    -DE/DX   Delta X   Delta X   Delta X     New X
                                 (Linear)    (Quad)   (Total)
    R1        2.07218  -0.00329   0.00000  -0.00958  -0.00958   2.06260
    R2        2.07560  -0.00280   0.00000  -0.00819  -0.00819   2.06742
    R3        2.86270  -0.00355   0.00000  -0.01139  -0.01139   2.85131
    R4        2.89501   0.00174   0.00000   0.00590   0.00590   2.90091
    R5        2.84820  -0.00046   0.00000  -0.00143  -0.00143   2.84677
    R6        2.54692  -0.00396   0.00000  -0.00709  -0.00709   2.53983
    R7        2.06964  -0.00373   0.00000  -0.01081  -0.01081   2.05883
    R8        2.06890  -0.00209   0.00000  -0.00605  -0.00605   2.06285
    R9        2.06836  -0.00180   0.00000  -0.00521  -0.00521   2.06316
   R10        2.05931  -0.00225   0.00000  -0.00639  -0.00639   2.05292
   R11        2.82709   0.00311   0.00000   0.00939   0.00939   2.83649
   R12        2.06758  -0.00154   0.00000  -0.00445  -0.00445   2.06313
   R13        2.06401  -0.00289   0.00000  -0.00829  -0.00829   2.05572
   R14        2.06909  -0.00265   0.00000  -0.00768  -0.00768   2.06141
   R15        2.06870  -0.00181   0.00000  -0.00524  -0.00524   2.06345
   R16        2.07017  -0.00269   0.00000  -0.00780  -0.00780   2.06238
   R17        2.06400  -0.00278   0.00000  -0.00798  -0.00798   2.05603
   R18        2.84199  -0.00049   0.00000  -0.00151  -0.00151   2.84048
   R19        2.84684  -0.00078   0.00000  -0.00242  -0.00242   2.84442
   R20        2.54626  -0.00326   0.00000  -0.00583  -0.00583   2.54043
   R21        2.06910  -0.00198   0.00000  -0.00574  -0.00574   2.06336
   R22        2.06916  -0.00200   0.00000  -0.00580  -0.00580   2.06336
   R23        2.06954  -0.00399   0.00000  -0.01155  -0.01155   2.05799
   R24        2.06004  -0.00197   0.00000  -0.00562  -0.00562   2.05441
   R25        2.84513  -0.00152   0.00000  -0.00475  -0.00475   2.84038
   R26        2.07380  -0.00239   0.00000  -0.00698  -0.00698   2.06683
   R27        2.06900  -0.00272   0.00000  -0.00787  -0.00787   2.06113
    A1        1.82996   0.00207   0.00000   0.02244   0.02227   1.85223
    A2        1.93013   0.00042   0.00000   0.00926   0.00930   1.93943
    A3        1.91834  -0.00277   0.00000  -0.02018  -0.02022   1.89812
    A4        1.90260  -0.00069   0.00000  -0.00270  -0.00269   1.89991
    A5        1.92013  -0.00195   0.00000  -0.01730  -0.01734   1.90280
    A6        1.95832   0.00284   0.00000   0.00916   0.00920   1.96752
    A7        2.00828   0.00237   0.00000   0.00969   0.00912   2.01740
    A8        2.17067  -0.00488   0.00000  -0.01891  -0.01945   2.15123
    A9        2.10405   0.00252   0.00000   0.01034   0.00976   2.11381
   A10        1.95926  -0.00262   0.00000  -0.01309  -0.01305   1.94620
   A11        1.92492   0.00164   0.00000   0.00890   0.00892   1.93384
   A12        1.92802   0.00228   0.00000   0.01219   0.01221   1.94023
   A13        1.87760   0.00110   0.00000   0.01017   0.01020   1.88780
   A14        1.87697   0.00055   0.00000   0.00565   0.00569   1.88266
   A15        1.89491  -0.00307   0.00000  -0.02466  -0.02465   1.87026
   A16        2.06964  -0.00193   0.00000  -0.01335  -0.01337   2.05627
   A17        2.22514  -0.00188   0.00000  -0.00838  -0.00840   2.21674
   A18        1.98827   0.00381   0.00000   0.02190   0.02189   2.01015
   A19        1.91730   0.00395   0.00000   0.02325   0.02322   1.94051
   A20        1.98125  -0.00299   0.00000  -0.01843  -0.01834   1.96291
   A21        1.90999   0.00238   0.00000   0.01563   0.01557   1.92556
   A22        1.89295  -0.00096   0.00000  -0.00768  -0.00758   1.88537
   A23        1.88709  -0.00309   0.00000  -0.01881  -0.01899   1.86810
   A24        1.87262   0.00053   0.00000   0.00497   0.00504   1.87766
   A25        1.89070  -0.00240   0.00000  -0.02164  -0.02162   1.86907
   A26        1.88444   0.00024   0.00000   0.00328   0.00331   1.88775
   A27        1.92162   0.00230   0.00000   0.01168   0.01170   1.93332
   A28        1.86370   0.00200   0.00000   0.01698   0.01699   1.88069
   A29        1.92075   0.00001   0.00000  -0.00085  -0.00084   1.91991
   A30        1.97974  -0.00222   0.00000  -0.01022  -0.01020   1.96954
   A31        1.99471   0.00146   0.00000   0.00580   0.00578   2.00048
   A32        2.18266  -0.00329   0.00000  -0.01298  -0.01300   2.16966
   A33        2.10577   0.00184   0.00000   0.00729   0.00727   2.11304
   A34        1.92495   0.00220   0.00000   0.01233   0.01235   1.93730
   A35        1.92346   0.00174   0.00000   0.00876   0.00879   1.93225
   A36        1.96057  -0.00276   0.00000  -0.01382  -0.01378   1.94679
   A37        1.89482  -0.00313   0.00000  -0.02537  -0.02536   1.86945
   A38        1.87919   0.00092   0.00000   0.00935   0.00939   1.88859
   A39        1.87883   0.00092   0.00000   0.00791   0.00794   1.88677
   A40        2.06718  -0.00168   0.00000  -0.01184  -0.01225   2.05493
   A41        2.22710  -0.00225   0.00000  -0.00991  -0.01032   2.21678
   A42        1.98878   0.00394   0.00000   0.02255   0.02212   2.01091
   A43        1.94444   0.00331   0.00000   0.01370   0.01373   1.95816
   A44        1.92089  -0.00239   0.00000  -0.01476  -0.01496   1.90594
   A45        1.92601  -0.00264   0.00000  -0.02490  -0.02497   1.90104
   A46        1.88062   0.00060   0.00000   0.01704   0.01709   1.89770
   A47        1.94659  -0.00053   0.00000  -0.00243  -0.00238   1.94421
   A48        1.84196   0.00155   0.00000   0.01186   0.01160   1.85356
    D1       -2.64265  -0.00174   0.00000  -0.05220  -0.05199  -2.69464
    D2        0.47834  -0.00076   0.00000   0.01022   0.00998   0.48832
    D3       -0.63954   0.00059   0.00000  -0.02164  -0.02140  -0.66094
    D4        2.48145   0.00157   0.00000   0.04077   0.04057   2.52202
[...]
                 (A) (A) (A) (A) (A) (A) (A) (A) (A) (A) (A) (A)
                 (A) (A) (A) (A) (A) (A) (A) (A) (A) (A) (A) (A)
                 (A) (A) (A) (A) (A) (A) (A) (A) (A) (A) (A) (A)
                 (A) (A) (A) (A) (A) (A) (A) (A) (A) (A) (A) (A)
                 (A) (A) (A) (A) (A) (A) (A) (A) (A) (A) (A) (A)
                 (A) (A) (A) (A) (A) (A) (A) (A) (A) (A) (A) (A)
                 (A) (A) (A) (A) (A) (A) (A) (A) (A) (A) (A) (A)
                 (A) (A) (A) (A) (A) (A) (A) (A) (A) (A) (A) (A)
                 (A) (A) (A) (A) (A) (A) (A) (A) (A) (A) (A) (A)
                 (A) (A) (A) (A) (A) (A) (A) (A) (A) (A) (A) (A)
                 (A) (A) (A) (A) (A) (A) (A) (A) (A) (A) (A) (A)
                 (A) (A) (A) (A) (A) (A) (A) (A) (A) (A) (A) (A)
                 (A) (A) (A) (A) (A) (A) (A) (A) (A) (A) (A) (A)
                 (A) (A) (A) (A) (A) (A) (A) (A) (A) (A) (A) (A)
                 (A) (A) (A) (A) (A) (A) (A) (A) (A)
 The electronic state is 1-A.
 Alpha  occ. eigenvalues --  -11.23020 -11.22460 -11.21868 -11.21730 -11.21712
 Alpha  occ. eigenvalues --  -11.21539 -11.21506 -11.21436 -11.21417 -11.21348
 Alpha  occ. eigenvalues --   -1.10821  -1.08492  -1.01823  -0.98143  -0.93838
 Alpha  occ. eigenvalues --   -0.91939  -0.86963  -0.82855  -0.70494  -0.69519
 Alpha  occ. eigenvalues --   -0.64988  -0.61512  -0.60591  -0.58878  -0.58366
 Alpha  occ. eigenvalues --   -0.56774  -0.55298  -0.54966  -0.53295  -0.52261
 Alpha  occ. eigenvalues --   -0.51859  -0.51173  -0.50832  -0.49581  -0.48519
 Alpha  occ. eigenvalues --   -0.46073  -0.44624  -0.33371  -0.31514
 Alpha virt. eigenvalues --    0.18142   0.19779   0.22152   0.24486   0.25192
 Alpha virt. eigenvalues --    0.27439   0.28535   0.28922   0.30318   0.30811
 Alpha virt. eigenvalues --    0.31477   0.32261   0.33202   0.33794   0.34383
 Alpha virt. eigenvalues --    0.35458   0.36114   0.36962   0.39185   0.40602
 Alpha virt. eigenvalues --    0.41328   0.42631   0.43685   0.44253   0.45395
 Alpha virt. eigenvalues --    0.51702   0.54378   0.61070   0.62576   0.70520
 Alpha virt. eigenvalues --    0.71073   0.72196   0.73768   0.76075   0.76177
 Alpha virt. eigenvalues --    0.76620   0.79010   0.79474   0.81070   0.82306
 Alpha virt. eigenvalues --    0.83713   0.85579   0.89117   0.91091   0.91343
 Alpha virt. eigenvalues --    0.92820   0.94745   0.97065   0.98284   0.98818
 Alpha virt. eigenvalues --    0.99710   1.00468   1.01911   1.03844   1.06577
 Alpha virt. eigenvalues --    1.08019   1.08221   1.09393   1.11664   1.12687
 Alpha virt. eigenvalues --    1.13026   1.13870   1.14856   1.15402   1.16045
 Alpha virt. eigenvalues --    1.16257   1.16619   1.18722   1.19116   1.20671
 Alpha virt. eigenvalues --    1.20953   1.23032   1.23885   1.25765   1.28153
 Alpha virt. eigenvalues --    1.34332   1.41723   1.42153   1.44890   1.46395
 Alpha virt. eigenvalues --    1.48456   1.54136   1.55360   1.57256   1.58165
 Alpha virt. eigenvalues --    1.61459   1.63397   1.66485   1.69046   1.69645
 Alpha virt. eigenvalues --    1.73917   1.82243   1.91111   1.93363   1.96231
 Alpha virt. eigenvalues --    1.98688   2.01467   2.02277   2.03942   2.08565
 Alpha virt. eigenvalues --    2.09706   2.10748   2.11744   2.13037   2.14903
 Alpha virt. eigenvalues --    2.15780   2.16940   2.19854   2.23666   2.28347
 Alpha virt. eigenvalues --    2.29590   2.30325   2.33235   2.35347   2.35688
 Alpha virt. eigenvalues --    2.35978   2.36098   2.38923   2.40264   2.41259
 Alpha virt. eigenvalues --    2.42195   2.43169   2.44154   2.45371   2.46084
 Alpha virt. eigenvalues --    2.47201   2.49167   2.49622   2.51174   2.54099
 Alpha virt. eigenvalues --    2.57315   2.58365   2.61888   2.63241   2.64107
 Alpha virt. eigenvalues --    2.67127   2.68175   2.71776   2.73352   2.73474
 Alpha virt. eigenvalues --    2.75815   2.77410   2.80796   2.82634   2.85354
 Alpha virt. eigenvalues --    2.87137   2.89441   2.92178   2.93739   2.94867
 Alpha virt. eigenvalues --    2.97869   2.99094   3.00960   3.02677   3.05807
 Alpha virt. eigenvalues --    3.06402   3.07703   3.09315   3.13762   3.17093
 Alpha virt. eigenvalues --    3.17589   3.19238   3.20046   3.21242   3.22334
 Alpha virt. eigenvalues --    3.24167   3.25050   3.26607   3.27420   3.37866
 Alpha virt. eigenvalues --    3.40355   3.46023   3.46902   3.56200   3.58183
 Alpha virt. eigenvalues --    3.59499   3.62406   3.67928   3.75494   3.78622
 Alpha virt. eigenvalues --    3.80005   3.81570   3.82569   3.83286   3.83898
 Alpha virt. eigenvalues --    3.84750   3.86481   3.87645   3.89820   3.91558
 Alpha virt. eigenvalues --    3.97645   4.59389   4.63170   4.74472   4.82572
 Alpha virt. eigenvalues --    4.88928   4.92582   4.93409   5.07840   5.10766
 Alpha virt. eigenvalues --    5.17766
          Condensed to atoms (all electrons):
               1          2          3          4          5          6
     1  C    5.004767   0.411715   0.414473   0.337355  -0.056085   0.003801
     2  H    0.411715   0.572983  -0.028296  -0.038988   0.003071  -0.000108
     3  H    0.414473  -0.028296   0.587507  -0.046308  -0.004587   0.000106
     4  C    0.337355  -0.038988  -0.046308   4.952603   0.351934  -0.042765
     5  C   -0.056085   0.003071  -0.004587   0.351934   4.891804   0.407087
     6  H    0.003801  -0.000108   0.000106  -0.042765   0.407087   0.568858
     7  H   -0.003698  -0.000034   0.002378  -0.041506   0.397495  -0.026764
     8  H    0.000011  -0.000005  -0.000489  -0.045679   0.400946  -0.027466
     9  C   -0.047991  -0.001860   0.002531   0.697840  -0.046054  -0.002890
    10  H    0.003272   0.000031  -0.000118  -0.037842  -0.006525   0.002385
    11  C   -0.007749  -0.002811   0.000160  -0.050271   0.003364   0.000132
    12  H    0.000152   0.000184   0.000017  -0.000628  -0.000106  -0.000006
    13  H   -0.001745  -0.001657   0.000030  -0.000691   0.000109   0.000005
    14  H    0.000310  -0.000067  -0.000013  -0.000247  -0.000095  -0.000006
    15  C    0.000587   0.000200  -0.000015  -0.000018  -0.000000  -0.000000
    16  H   -0.000040   0.000022   0.000000   0.000001  -0.000000   0.000000
    17  H    0.000130  -0.000135  -0.000002  -0.000005   0.000000  -0.000000
    18  H   -0.000302  -0.000131  -0.000016  -0.000011  -0.000000   0.000000
    19  C   -0.004325   0.001388   0.000787   0.000041  -0.000003   0.000000
    20  C   -0.000099  -0.000043  -0.000004   0.000001  -0.000000   0.000000
    21  H    0.000024  -0.000007  -0.000002  -0.000000   0.000000  -0.000000
    22  H   -0.000005   0.000002   0.000000   0.000000  -0.000000   0.000000
    23  H   -0.000003  -0.000002   0.000003   0.000000  -0.000000   0.000000
    24  C   -0.061827  -0.000504  -0.000900   0.006443  -0.000149   0.000004
    25  H    0.000175   0.000111   0.001011  -0.000152   0.000010  -0.000000
    26  C    0.332330  -0.041801  -0.046074  -0.055544  -0.000661  -0.000109
    27  H   -0.046841   0.004515  -0.001931  -0.002075  -0.000289  -0.000050
    28  H   -0.042370  -0.003118   0.004477  -0.001813   0.000243  -0.000005
               7          8          9         10         11         12
     1  C   -0.003698   0.000011  -0.047991   0.003272  -0.007749   0.000152
     2  H   -0.000034  -0.000005  -0.001860   0.000031  -0.002811   0.000184
     3  H    0.002378  -0.000489   0.002531  -0.000118   0.000160   0.000017
     4  C   -0.041506  -0.045679   0.697840  -0.037842  -0.050271  -0.000628
     5  C    0.397495   0.400946  -0.046054  -0.006525   0.003364  -0.000106
     6  H   -0.026764  -0.027466  -0.002890   0.002385   0.000132  -0.000006
     7  H    0.591921  -0.037541  -0.000373   0.000216  -0.000105   0.000017
     8  H   -0.037541   0.596034  -0.001011   0.000135  -0.000101  -0.000004
     9  C   -0.000373  -0.001011   4.938971   0.404494   0.340494  -0.041523
    10  H    0.000216   0.000135   0.404494   0.558671  -0.041279  -0.001122
    11  C   -0.000105  -0.000101   0.340494  -0.041279   4.900974   0.401144
    12  H    0.000017  -0.000004  -0.041523  -0.001122   0.401144   0.583648
    13  H    0.000002  -0.000003  -0.043903   0.003299   0.409079  -0.027132
    14  H   -0.000004   0.000017  -0.041805  -0.001264   0.402169  -0.035462
    15  C    0.000000  -0.000000   0.000015  -0.000000  -0.000147   0.000004
    16  H    0.000000  -0.000000   0.000000   0.000000   0.000003   0.000000
    17  H   -0.000000   0.000000   0.000000  -0.000000  -0.000009  -0.000000
    18  H   -0.000000   0.000000  -0.000045   0.000000   0.000074  -0.000013
    19  C    0.000000   0.000000  -0.000001   0.000000   0.000013  -0.000000
    20  C   -0.000000  -0.000000  -0.000000   0.000000  -0.000000   0.000000
    21  H   -0.000000   0.000000   0.000000  -0.000000  -0.000000  -0.000000
    22  H    0.000000   0.000000   0.000000   0.000000   0.000000   0.000000
    23  H   -0.000000  -0.000000  -0.000000   0.000000   0.000000  -0.000000
    24  C    0.000004  -0.000111   0.000114   0.000002  -0.000031   0.000002
    25  H   -0.000001   0.000015  -0.000002  -0.000000   0.000000   0.000000
    26  C    0.000086   0.000609  -0.004911  -0.000113   0.000577  -0.000037
    27  H    0.000058   0.000197   0.000760   0.000001  -0.000033  -0.000000
    28  H    0.000006  -0.000015   0.001406  -0.000046  -0.000082   0.000037
              13         14         15         16         17         18
     1  C   -0.001745   0.000310   0.000587  -0.000040   0.000130  -0.000302
     2  H   -0.001657  -0.000067   0.000200   0.000022  -0.000135  -0.000131
     3  H    0.000030  -0.000013  -0.000015   0.000000  -0.000002  -0.000016
     4  C   -0.000691  -0.000247  -0.000018   0.000001  -0.000005  -0.000011
     5  C    0.000109  -0.000095  -0.000000  -0.000000   0.000000  -0.000000
     6  H    0.000005  -0.000006  -0.000000   0.000000  -0.000000   0.000000
     7  H    0.000002  -0.000004   0.000000   0.000000  -0.000000  -0.000000
     8  H   -0.000003   0.000017  -0.000000  -0.000000   0.000000   0.000000
     9  C   -0.043903  -0.041805   0.000015   0.000000   0.000000  -0.000045
    10  H    0.003299  -0.001264  -0.000000   0.000000  -0.000000   0.000000
    11  C    0.409079   0.402169  -0.000147   0.000003  -0.000009   0.000074
    12  H   -0.027132  -0.035462   0.000004   0.000000  -0.000000  -0.000013
    13  H    0.577164  -0.029956  -0.000000  -0.000008   0.000079   0.000412
    14  H   -0.029956   0.586720  -0.000015  -0.000000   0.000000   0.000114
    15  C   -0.000000  -0.000015   4.907254   0.399852   0.401208   0.407154
    16  H   -0.000008  -0.000000   0.399852   0.584669  -0.035759  -0.026060
    17  H    0.000079   0.000000   0.401208  -0.035759   0.587442  -0.028659
    18  H    0.000412   0.000114   0.407154  -0.026060  -0.028659   0.568221
    19  C   -0.000026   0.000001   0.350333  -0.043537  -0.043385  -0.037848
    20  C    0.000000  -0.000000  -0.064931  -0.002223  -0.002632   0.003725
    21  H   -0.000000   0.000000  -0.001975  -0.000456   0.002756  -0.000068
    22  H   -0.000000  -0.000000  -0.001201   0.002766  -0.000476  -0.000031
    23  H   -0.000000  -0.000000   0.003785  -0.000053  -0.000032  -0.000113
    24  C    0.000026  -0.000009  -0.044248  -0.000365  -0.000031  -0.003253
    25  H   -0.000002   0.000000   0.003528  -0.000121  -0.000121   0.000061
    26  C   -0.000737   0.000163  -0.008144   0.000117   0.000367  -0.002068
    27  H   -0.000010  -0.000000   0.000195   0.000021  -0.000014   0.000058
    28  H   -0.000475  -0.000140  -0.002693   0.000113  -0.000076  -0.001675
              19         20         21         22         23         24
     1  C   -0.004325  -0.000099   0.000024  -0.000005  -0.000003  -0.061827
     2  H    0.001388  -0.000043  -0.000007   0.000002  -0.000002  -0.000504
     3  H    0.000787  -0.000004  -0.000002   0.000000   0.000003  -0.000900
     4  C    0.000041   0.000001  -0.000000   0.000000   0.000000   0.006443
     5  C   -0.000003  -0.000000   0.000000  -0.000000  -0.000000  -0.000149
     6  H    0.000000   0.000000  -0.000000   0.000000   0.000000   0.000004
     7  H    0.000000  -0.000000  -0.000000   0.000000  -0.000000   0.000004
     8  H    0.000000  -0.000000   0.000000   0.000000  -0.000000  -0.000111
     9  C   -0.000001  -0.000000   0.000000   0.000000  -0.000000   0.000114
    10  H    0.000000   0.000000  -0.000000   0.000000   0.000000   0.000002
    11  C    0.000013  -0.000000  -0.000000   0.000000   0.000000  -0.000031
    12  H   -0.000000   0.000000  -0.000000   0.000000  -0.000000   0.000002
    13  H   -0.000026   0.000000  -0.000000  -0.000000  -0.000000   0.000026
    14  H    0.000001  -0.000000   0.000000  -0.000000  -0.000000  -0.000009
    15  C    0.350333  -0.064931  -0.001975  -0.001201   0.003785  -0.044248
    16  H   -0.043537  -0.002223  -0.000456   0.002766  -0.000053  -0.000365
    17  H   -0.043385  -0.002632   0.002756  -0.000476  -0.000032  -0.000031
    18  H   -0.037848   0.003725  -0.000068  -0.000031  -0.000113  -0.003253
    19  C    4.914192   0.353753  -0.043899  -0.044274  -0.041639   0.697734
    20  C    0.353753   4.900112   0.398238   0.398811   0.406218  -0.044415
    21  H   -0.043899   0.398238   0.594542  -0.037806  -0.026703  -0.000422
    22  H   -0.044274   0.398811  -0.037806   0.593607  -0.026549  -0.001270
    23  H   -0.041639   0.406218  -0.026703  -0.026549   0.566018  -0.002632
    24  C    0.697734  -0.044415  -0.000422  -0.001270  -0.002632   4.962747
    25  H   -0.038449  -0.006963   0.000182   0.000187   0.002335   0.403391
    26  C   -0.050100   0.003126  -0.000068  -0.000131   0.000148   0.338699
    27  H    0.001583  -0.000094  -0.000002   0.000009  -0.000010  -0.041394
    28  H    0.000438   0.000051  -0.000005   0.000007   0.000007  -0.044060
              25         26         27         28
     1  C    0.000175   0.332330  -0.046841  -0.042370
     2  H    0.000111  -0.041801   0.004515  -0.003118
     3  H    0.001011  -0.046074  -0.001931   0.004477
     4  C   -0.000152  -0.055544  -0.002075  -0.001813
     5  C    0.000010  -0.000661  -0.000289   0.000243
     6  H   -0.000000  -0.000109  -0.000050  -0.000005
     7  H   -0.000001   0.000086   0.000058   0.000006
     8  H    0.000015   0.000609   0.000197  -0.000015
     9  C   -0.000002  -0.004911   0.000760   0.001406
    10  H   -0.000000  -0.000113   0.000001  -0.000046
    11  C    0.000000   0.000577  -0.000033  -0.000082
    12  H    0.000000  -0.000037  -0.000000   0.000037
    13  H   -0.000002  -0.000737  -0.000010  -0.000475
    14  H    0.000000   0.000163  -0.000000  -0.000140
    15  C    0.003528  -0.008144   0.000195  -0.002693
    16  H   -0.000121   0.000117   0.000021   0.000113
    17  H   -0.000121   0.000367  -0.000014  -0.000076
    18  H    0.000061  -0.002068   0.000058  -0.001675
    19  C   -0.038449  -0.050100   0.001583   0.000438
    20  C   -0.006963   0.003126  -0.000094   0.000051
    21  H    0.000182  -0.000068  -0.000002  -0.000005
    22  H    0.000187  -0.000131   0.000009   0.000007
    23  H    0.002335   0.000148  -0.000010   0.000007
    24  C    0.403391   0.338699  -0.041394  -0.044060
    25  H    0.557388  -0.039113  -0.003424   0.003152
    26  C   -0.039113   4.979544   0.413482   0.415850
    27  H   -0.003424   0.413482   0.585267  -0.028362
    28  H    0.003152   0.415850  -0.028362   0.575347
 Mulliken charges:
               1
     1  C   -0.236021
     2  H    0.125346
     3  H    0.115272
     4  C    0.018322
     5  C   -0.341505
     6  H    0.117792
     7  H    0.117844
     8  H    0.114461
     9  C   -0.154256
    10  H    0.115801
    11  C   -0.355567
    12  H    0.120830
    13  H    0.116140
    14  H    0.119588
    15  C   -0.350727
    16  H    0.121058
    17  H    0.119352
    18  H    0.120474
    19  C    0.027222
    20  C   -0.342631
    21  H    0.115672
    22  H    0.116356
    23  H    0.119222
    24  C   -0.163543
    25  H    0.116803
    26  C   -0.235486
    27  H    0.118380
    28  H    0.123802
 Sum of Mulliken charges =  -0.00000
 Mulliken charges with hydrogens summed into heavy atoms:
               1
     1  C    0.004596
     4  C    0.018322
     5  C    0.008593
     9  C   -0.038454
    11  C    0.000991
    15  C    0.010156
    19  C    0.027222
    20  C    0.008618
    24  C   -0.046740
    26  C    0.006696
 Electronic spatial extent (au):  <R**2>=           2384.0052
 Charge=              0.0000 electrons
 Dipole moment (field-independent basis, Debye):
    X=              0.3027    Y=              0.1253    Z=              0.0460  Tot=              0.3308
 Quadrupole moment (field-independent basis, Debye-Ang):
   XX=            -64.3023   YY=            -63.2901   ZZ=            -67.3956
   XY=              0.7521   XZ=              1.2367   YZ=             -0.3487
 Traceless Quadrupole moment (field-independent basis, Debye-Ang):
   XX=              0.6937   YY=              1.7059   ZZ=             -2.3996
   XY=              0.7521   XZ=              1.2367   YZ=             -0.3487
 Octapole moment (field-independent basis, Debye-Ang**2):
  XXX=              2.6682  YYY=             -2.9989  ZZZ=              0.9000  XYY=             -0.6415
  XXY=              4.0909  XXZ=             -2.0918  XZZ=              1.2120  YZZ=              1.4955
  YYZ=              0.6110  XYZ=             -0.3641
 Hexadecapole moment (field-independent basis, Debye-Ang**3):
 XXXX=          -2435.7152 YYYY=           -693.4926 ZZZZ=           -166.6414 XXXY=              2.3047
 XXXZ=             14.7514 YYYX=            -11.0526 YYYZ=             -1.4214 ZZZX=              2.8120
 ZZZY=             -0.6411 XXYY=           -520.1244 XXZZ=           -449.2338 YYZZ=           -138.3649
 XXYZ=             -4.2785 YYXZ=              0.5785 ZZXY=              5.9187
 N-N= 5.190880334821D+02 E-N=-1.942888806049D+03  KE= 3.887471637358D+02
 No NMR shielding tensors so no spin-rotation constants.
 Leave Link  601 at Fri Sep 17 14:53:40 2021, MaxMem=   524288000 cpu:               0.3 elap:               0.6
 (Enter /opt/gaussian/g16_legacy/l9999.exe)
 1\1\GINC-TRUENO90\FOpt\RMP2-FC\6-31G(d,p)\C10H18\JRAMOS\17-Sep-2021\0\
 \#p opt mp2/6-31g(d,p)\\Conformer number 2005. Energy MM = 23.242 kcal
 /mol\\0,1\C,0.6628010494,0.1338075549,-0.9549417326\H,0.501434565,1.11
 01867184,-0.4954201598\H,0.367928054,0.2371223851,-2.0032086682\C,2.11
 10758823,-0.2799133146,-0.881289103\C,2.5949648027,-1.150070296,-2.009
 1763406\H,3.6235565707,-1.4727733744,-1.8530326117\H,2.5435256605,-0.6
 165095568,-2.9607496976\H,1.9719842755,-2.0414783677,-2.1109804207\C,2
 .9249952359,0.0469847304,0.1398008263\H,3.9454738916,-0.3248700804,0.1
 099594027\C,2.5788290043,0.8794705779,1.3369133831\H,3.2194571447,1.76
 12733842,1.3984027004\H,1.5446414427,1.2159636638,1.3223020349\H,2.730
 4449316,0.3122618515,2.2572355409\C,-2.0267979464,0.6394045433,1.76973
 89153\H,-2.6223181369,0.1899779607,2.567578726\H,-2.1656169537,1.72022
 51498,1.8431666859\H,-0.9794656323,0.4221952837,1.96379746\C,-2.488901
 4373,0.1483735899,0.425784712\C,-3.9218357343,0.4663938379,0.098658450
 1\H,-4.0938328778,1.5450441072,0.1104382871\H,-4.5954866148,0.03041850
 73,0.8398834096\H,-4.2020580578,0.0863376237,-0.8825608364\C,-1.714947
 0096,-0.5289082136,-0.4431512606\H,-2.1592401275,-0.8108483541,-1.3944
 378533\C,-0.2683041925,-0.8868581131,-0.2729101876\H,-0.0871192553,-1.
 8758320883,-0.7022633635\H,0.004911465,-0.9573797107,0.7806617013\\Ver
 sion=EM64L-G16RevA.03\State=1-A\HF=-389.1567534\MP2=-390.5738646\RMSD=
 5.139e-09\RMSF=3.196e-06\Dipole=-0.0779381,0.0516031,0.069125\PG=C01 [
 X(C10H18)]\\@


 IF I HAVE SEEN FARTHER, IT IS BY STANDING ON THE
 SHOULDERS OF GIANTS. -- SIR ISAAC NEWTON
 Job cpu time:       0 days  1 hours 20 minutes 56.0 seconds.
 Elapsed time:       0 days  1 hours 21 minutes  0.6 seconds.
 File lengths (MBytes):  RWF=     32 Int=      0 D2E=      0 Chk=      7 Scr=      1
 Normal termination of Gaussian 16 at Fri Sep 17 14:53:40 2021.
