 Entering Gaussian System, Link 0=/opt/gaussian/g16_legacy/g16
 Input=01-IsoP_2297_gaussian.com
 Output=01-IsoP_2297_gaussian.log
 Initial command:
 /opt/gaussian/g16_legacy/l1.exe "/scratch-local/jramos/2661352/Gau-29946.inp" -scrdir="/scratch-local/jramos/2661352/"
 Entering Link 1 = /opt/gaussian/g16_legacy/l1.exe PID=     29973.
  
 Copyright (c) 1988,1990,1992,1993,1995,1998,2003,2009,2016,
            Gaussian, Inc.  All Rights Reserved.
  
 This is part of the Gaussian(R) 16 program.  It is based on
 the Gaussian(R) 09 system (copyright 2009, Gaussian, Inc.),
 the Gaussian(R) 03 system (copyright 2003, Gaussian, Inc.),
 the Gaussian(R) 98 system (copyright 1998, Gaussian, Inc.),
 the Gaussian(R) 94 system (copyright 1995, Gaussian, Inc.),
 the Gaussian 92(TM) system (copyright 1992, Gaussian, Inc.),
 the Gaussian 90(TM) system (copyright 1990, Gaussian, Inc.),
 the Gaussian 88(TM) system (copyright 1988, Gaussian, Inc.),
 the Gaussian 86(TM) system (copyright 1986, Carnegie Mellon
 University), and the Gaussian 82(TM) system (copyright 1983,
 Carnegie Mellon University). Gaussian is a federally registered
 trademark of Gaussian, Inc.
  
 This software contains proprietary and confidential information,
 including trade secrets, belonging to Gaussian, Inc.
  
 This software is provided under written license and may be
 used, copied, transmitted, or stored only in accord with that
 written license.
  
 The following legend is applicable only to US Government
 contracts under FAR:
  
                    RESTRICTED RIGHTS LEGEND
  
 Use, reproduction and disclosure by the US Government is
 subject to restrictions as set forth in subparagraphs (a)
 and (c) of the Commercial Computer Software - Restricted
 Rights clause in FAR 52.227-19.
  
 Gaussian, Inc.
 340 Quinnipiac St., Bldg. 40, Wallingford CT 06492
  
  
 ---------------------------------------------------------------
 Warning -- This program may not be used in any manner that
 competes with the business of Gaussian, Inc. or will provide
 assistance to any competitor of Gaussian, Inc.  The licensee
 of this program is prohibited from giving any competitor of
 Gaussian, Inc. access to this program.  By using this program,
 the user acknowledges that Gaussian, Inc. is engaged in the
 business of creating and licensing software in the field of
 computational chemistry and represents and warrants to the
 licensee that it is not a competitor of Gaussian, Inc. and that
 it will not use this program in any manner prohibited above.
 ---------------------------------------------------------------
  

 Cite this work as:
 Gaussian 16, Revision A.03,
 M. J. Frisch, G. W. Trucks, H. B. Schlegel, G. E. Scuseria, 
 M. A. Robb, J. R. Cheeseman, G. Scalmani, V. Barone, 
 G. A. Petersson, H. Nakatsuji, X. Li, M. Caricato, A. V. Marenich, 
 J. Bloino, B. G. Janesko, R. Gomperts, B. Mennucci, H. P. Hratchian, 
 J. V. Ortiz, A. F. Izmaylov, J. L. Sonnenberg, D. Williams-Young, 
 F. Ding, F. Lipparini, F. Egidi, J. Goings, B. Peng, A. Petrone, 
 T. Henderson, D. Ranasinghe, V. G. Zakrzewski, J. Gao, N. Rega, 
 G. Zheng, W. Liang, M. Hada, M. Ehara, K. Toyota, R. Fukuda, 
 J. Hasegawa, M. Ishida, T. Nakajima, Y. Honda, O. Kitao, H. Nakai, 
 T. Vreven, K. Throssell, J. A. Montgomery, Jr., J. E. Peralta, 
 F. Ogliaro, M. J. Bearpark, J. J. Heyd, E. N. Brothers, K. N. Kudin, 
 V. N. Staroverov, T. A. Keith, R. Kobayashi, J. Normand, 
 K. Raghavachari, A. P. Rendell, J. C. Burant, S. S. Iyengar, 
 J. Tomasi, M. Cossi, J. M. Millam, M. Klene, C. Adamo, R. Cammi, 
 J. W. Ochterski, R. L. Martin, K. Morokuma, O. Farkas, 
 J. B. Foresman, and D. J. Fox, Gaussian, Inc., Wallingford CT, 2016.
 
 ******************************************
 Gaussian 16:  EM64L-G16RevA.03 25-Dec-2016
                17-Sep-2021 
 ******************************************
 %chk=01-IsoP_2297_gaussian.chk
 %nproc=1
 Will use up to    1 processors via shared memory.
 %mem=4000Mb
 ---------------------
 #p opt mp2/6-31g(d,p)
 ---------------------
 1/18=20,19=15,38=1/1,3;
 2/9=110,12=2,17=6,18=5,40=1/2;
 3/5=1,6=6,7=101,11=9,25=1,30=1,71=1/1,2,3;
 4//1;
 5/5=2,38=5/2;
 8/6=4,10=2/1;
 9/15=2,16=-3/6;
 10/5=1/2;
 6/7=2,8=2,9=2,10=2/1;
 7/12=2/1,2,3,16;
 1/18=20,19=15/3(2);
 2/9=110/2;
 99//99;
 2/9=110/2;
 3/5=1,6=6,7=101,11=9,25=1,30=1,71=1/1,2,3;
 4/5=5,16=3,69=1/1;
 5/5=2,38=5/2;
 8/6=4,10=2/1;
 9/15=2,16=-3/6;
 10/5=1/2;
 7/12=2/1,2,3,16;
 1/18=20,19=15/3(-8);
 2/9=110/2;
 6/7=2,8=2,9=2,10=2/1;
 99//99;
 Leave Link    1 at Fri Sep 17 13:32:38 2021, MaxMem=   524288000 cpu:               0.0 elap:               0.1
 (Enter /opt/gaussian/g16_legacy/l101.exe)
 --------------------------------------------------
 Conformer number 2297. Energy MM = 23.287 kcal/mol
 --------------------------------------------------
 Symbolic Z-matrix:
 Charge =  0 Multiplicity = 1
 C                    -0.8652   -0.2855    0.3299 
 H                    -1.0657    0.7191    0.7262 
 H                    -0.8112   -0.931     1.2147 
 C                    -2.0155   -0.6999   -0.5644 
 C                    -2.6111    0.4106   -1.3918 
 H                    -3.4442    0.0643   -2.0126 
 H                    -2.9912    1.2059   -0.7422 
 H                    -1.8568    0.8375   -2.0602 
 C                    -2.5192   -1.9482   -0.6298 
 H                    -3.3653   -2.1347   -1.2908 
 C                    -2.0391   -3.164     0.0977 
 H                    -1.1008   -3.0079    0.6346 
 H                    -1.8736   -3.9755   -0.6184 
 H                    -2.798    -3.492     0.8144 
 C                     3.4006    1.4839    1.5096 
 H                     3.1677    2.2947    2.2076 
 H                     4.3105    1.7472    0.9604 
 H                     3.6173    0.5881    2.101 
 C                     2.2568    1.2746    0.5517 
 C                     1.9276    2.4761   -0.2906 
 H                     1.779     3.3535    0.3482 
 H                     1.0152    2.3566   -0.8793 
 H                     2.7501    2.6884   -0.9812 
 C                     1.6094    0.094     0.5026 
 H                     1.9272   -0.7011    1.1774 
 C                     0.4767   -0.2965   -0.4091 
 H                     0.4353    0.3471   -1.2935 
 H                     0.6836   -1.3053   -0.7893 
 
 ITRead=  0  0  0  0  0  0  0  0  0  0  0  0  0  0  0  0  0  0  0  0
 ITRead=  0  0  0  0  0  0  0  0
 MicOpt= -1 -1 -1 -1 -1 -1 -1 -1 -1 -1 -1 -1 -1 -1 -1 -1 -1 -1 -1 -1
 MicOpt= -1 -1 -1 -1 -1 -1 -1 -1
 NAtoms=     28 NQM=       28 NQMF=       0 NMMI=      0 NMMIF=      0
                NMic=       0 NMicF=      0.
                    Isotopes and Nuclear Properties:
 (Nuclear quadrupole moments (NQMom) in fm**2, nuclear magnetic moments (NMagM)
  in nuclear magnetons)

  Atom         1           2           3           4           5           6           7           8           9          10
 IAtWgt=          12           1           1          12          12           1           1           1          12           1
 AtmWgt=  12.0000000   1.0078250   1.0078250  12.0000000  12.0000000   1.0078250   1.0078250   1.0078250  12.0000000   1.0078250
 NucSpn=           0           1           1           0           0           1           1           1           0           1
 AtZEff=  -0.0000000  -0.0000000  -0.0000000  -0.0000000  -0.0000000  -0.0000000  -0.0000000  -0.0000000  -0.0000000  -0.0000000
 NQMom=    0.0000000   0.0000000   0.0000000   0.0000000   0.0000000   0.0000000   0.0000000   0.0000000   0.0000000   0.0000000
 NMagM=    0.0000000   2.7928460   2.7928460   0.0000000   0.0000000   2.7928460   2.7928460   2.7928460   0.0000000   2.7928460
 AtZNuc=   6.0000000   1.0000000   1.0000000   6.0000000   6.0000000   1.0000000   1.0000000   1.0000000   6.0000000   1.0000000

  Atom        11          12          13          14          15          16          17          18          19          20
 IAtWgt=          12           1           1           1          12           1           1           1          12          12
 AtmWgt=  12.0000000   1.0078250   1.0078250   1.0078250  12.0000000   1.0078250   1.0078250   1.0078250  12.0000000  12.0000000
 NucSpn=           0           1           1           1           0           1           1           1           0           0
 AtZEff=  -0.0000000  -0.0000000  -0.0000000  -0.0000000  -0.0000000  -0.0000000  -0.0000000  -0.0000000  -0.0000000  -0.0000000
 NQMom=    0.0000000   0.0000000   0.0000000   0.0000000   0.0000000   0.0000000   0.0000000   0.0000000   0.0000000   0.0000000
 NMagM=    0.0000000   2.7928460   2.7928460   2.7928460   0.0000000   2.7928460   2.7928460   2.7928460   0.0000000   0.0000000
 AtZNuc=   6.0000000   1.0000000   1.0000000   1.0000000   6.0000000   1.0000000   1.0000000   1.0000000   6.0000000   6.0000000

  Atom        21          22          23          24          25          26          27          28
 IAtWgt=           1           1           1          12           1          12           1           1
 AtmWgt=   1.0078250   1.0078250   1.0078250  12.0000000   1.0078250  12.0000000   1.0078250   1.0078250
 NucSpn=           1           1           1           0           1           0           1           1
 AtZEff=  -0.0000000  -0.0000000  -0.0000000  -0.0000000  -0.0000000  -0.0000000  -0.0000000  -0.0000000
 NQMom=    0.0000000   0.0000000   0.0000000   0.0000000   0.0000000   0.0000000   0.0000000   0.0000000
 NMagM=    2.7928460   2.7928460   2.7928460   0.0000000   2.7928460   0.0000000   2.7928460   2.7928460
 AtZNuc=   1.0000000   1.0000000   1.0000000   6.0000000   1.0000000   6.0000000   1.0000000   1.0000000
 Leave Link  101 at Fri Sep 17 13:32:38 2021, MaxMem=   524288000 cpu:               0.3 elap:               0.3
 (Enter /opt/gaussian/g16_legacy/l103.exe)

 GradGradGradGradGradGradGradGradGradGradGradGradGradGradGradGradGradGrad
 Berny optimization.
 Initialization pass.
                           ----------------------------
                           !    Initial Parameters    !
                           ! (Angstroms and Degrees)  !
 --------------------------                            --------------------------
 ! Name  Definition              Value          Derivative Info.                !
 --------------------------------------------------------------------------------
 ! R1    R(1,2)                  1.0984         estimate D2E/DX2                !
 ! R2    R(1,3)                  1.0966         estimate D2E/DX2                !
 ! R3    R(1,4)                  1.5148         estimate D2E/DX2                !
 ! R4    R(1,26)                 1.532          estimate D2E/DX2                !
 ! R5    R(4,5)                  1.5075         estimate D2E/DX2                !
 ! R6    R(4,9)                  1.3477         estimate D2E/DX2                !
 ! R7    R(5,6)                  1.0952         estimate D2E/DX2                !
 ! R8    R(5,7)                  1.095          estimate D2E/DX2                !
 ! R9    R(5,8)                  1.0945         estimate D2E/DX2                !
 ! R10   R(9,10)                 1.0898         estimate D2E/DX2                !
 ! R11   R(9,11)                 1.496          estimate D2E/DX2                !
 ! R12   R(11,12)                1.0923         estimate D2E/DX2                !
 ! R13   R(11,13)                1.0949         estimate D2E/DX2                !
 ! R14   R(11,14)                1.0942         estimate D2E/DX2                !
 ! R15   R(15,16)                1.0949         estimate D2E/DX2                !
 ! R16   R(15,17)                1.0949         estimate D2E/DX2                !
 ! R17   R(15,18)                1.0951         estimate D2E/DX2                !
 ! R18   R(15,19)                1.5065         estimate D2E/DX2                !
 ! R19   R(19,20)                1.5038         estimate D2E/DX2                !
 ! R20   R(19,24)                1.3474         estimate D2E/DX2                !
 ! R21   R(20,21)                1.0954         estimate D2E/DX2                !
 ! R22   R(20,22)                1.0924         estimate D2E/DX2                !
 ! R23   R(20,23)                1.0948         estimate D2E/DX2                !
 ! R24   R(24,25)                1.0902         estimate D2E/DX2                !
 ! R25   R(24,26)                1.5056         estimate D2E/DX2                !
 ! R26   R(26,27)                1.0946         estimate D2E/DX2                !
 ! R27   R(26,28)                1.0977         estimate D2E/DX2                !
 ! A1    A(2,1,3)              104.848          estimate D2E/DX2                !
 ! A2    A(2,1,4)              108.9409         estimate D2E/DX2                !
 ! A3    A(2,1,26)             109.9075         estimate D2E/DX2                !
 ! A4    A(3,1,4)              110.6535         estimate D2E/DX2                !
 ! A5    A(3,1,26)             109.9906         estimate D2E/DX2                !
 ! A6    A(4,1,26)             112.2346         estimate D2E/DX2                !
 ! A7    A(1,4,5)              114.9941         estimate D2E/DX2                !
 ! A8    A(1,4,9)              124.4616         estimate D2E/DX2                !
 ! A9    A(5,4,9)              120.5326         estimate D2E/DX2                !
 ! A10   A(4,5,6)              112.2556         estimate D2E/DX2                !
 ! A11   A(4,5,7)              110.2784         estimate D2E/DX2                !
 ! A12   A(4,5,8)              110.5004         estimate D2E/DX2                !
 ! A13   A(6,5,7)              107.5715         estimate D2E/DX2                !
 ! A14   A(6,5,8)              107.5427         estimate D2E/DX2                !
 ! A15   A(7,5,8)              108.556          estimate D2E/DX2                !
 ! A16   A(4,9,10)             118.5638         estimate D2E/DX2                !
 ! A17   A(4,9,11)             127.5345         estimate D2E/DX2                !
 ! A18   A(10,9,11)            113.8946         estimate D2E/DX2                !
 ! A19   A(9,11,12)            113.4898         estimate D2E/DX2                !
 ! A20   A(9,11,13)            109.4399         estimate D2E/DX2                !
 ! A21   A(9,11,14)            109.8514         estimate D2E/DX2                !
 ! A22   A(12,11,13)           107.3119         estimate D2E/DX2                !
 ! A23   A(12,11,14)           108.463          estimate D2E/DX2                !
 ! A24   A(13,11,14)           108.1242         estimate D2E/DX2                !
 ! A25   A(16,15,17)           108.5691         estimate D2E/DX2                !
 ! A26   A(16,15,18)           107.6724         estimate D2E/DX2                !
 ! A27   A(16,15,19)           110.2867         estimate D2E/DX2                !
 ! A28   A(17,15,18)           107.6471         estimate D2E/DX2                !
 ! A29   A(17,15,19)           110.2069         estimate D2E/DX2                !
 ! A30   A(18,15,19)           112.3323         estimate D2E/DX2                !
 ! A31   A(15,19,20)           114.2889         estimate D2E/DX2                !
 ! A32   A(15,19,24)           120.6446         estimate D2E/DX2                !
 ! A33   A(20,19,24)           125.064          estimate D2E/DX2                !
 ! A34   A(19,20,21)           110.0605         estimate D2E/DX2                !
 ! A35   A(19,20,22)           113.4087         estimate D2E/DX2                !
 ! A36   A(19,20,23)           110.1086         estimate D2E/DX2                !
 ! A37   A(21,20,22)           106.773          estimate D2E/DX2                !
 ! A38   A(21,20,23)           108.3279         estimate D2E/DX2                !
 ! A39   A(22,20,23)           107.9852         estimate D2E/DX2                !
 ! A40   A(19,24,25)           118.4525         estimate D2E/DX2                !
 ! A41   A(19,24,26)           127.6504         estimate D2E/DX2                !
 ! A42   A(25,24,26)           113.8893         estimate D2E/DX2                !
 ! A43   A(1,26,24)            111.4094         estimate D2E/DX2                !
 ! A44   A(1,26,27)            110.6346         estimate D2E/DX2                !
 ! A45   A(1,26,28)            109.8016         estimate D2E/DX2                !
 ! A46   A(24,26,27)           111.4216         estimate D2E/DX2                !
 ! A47   A(24,26,28)           107.8358         estimate D2E/DX2                !
 ! A48   A(27,26,28)           105.5236         estimate D2E/DX2                !
 ! D1    D(2,1,4,5)             36.9626         estimate D2E/DX2                !
 ! D2    D(2,1,4,9)           -141.7897         estimate D2E/DX2                !
 ! D3    D(3,1,4,5)            151.7271         estimate D2E/DX2                !
 ! D4    D(3,1,4,9)            -27.0252         estimate D2E/DX2                !
 ! D5    D(26,1,4,5)           -84.9889         estimate D2E/DX2                !
 ! D6    D(26,1,4,9)            96.2587         estimate D2E/DX2                !
 ! D7    D(2,1,26,24)           59.6223         estimate D2E/DX2                !
 ! D8    D(2,1,26,27)          -64.9075         estimate D2E/DX2                !
 ! D9    D(2,1,26,28)          179.0181         estimate D2E/DX2                !
 ! D10   D(3,1,26,24)          -55.3232         estimate D2E/DX2                !
 ! D11   D(3,1,26,27)         -179.853          estimate D2E/DX2                !
 ! D12   D(3,1,26,28)           64.0725         estimate D2E/DX2                !
 ! D13   D(4,1,26,24)         -178.9785         estimate D2E/DX2                !
 ! D14   D(4,1,26,27)           56.4917         estimate D2E/DX2                !
 ! D15   D(4,1,26,28)          -59.5828         estimate D2E/DX2                !
 ! D16   D(1,4,5,6)           -179.409          estimate D2E/DX2                !
 ! D17   D(1,4,5,7)            -59.4783         estimate D2E/DX2                !
 ! D18   D(1,4,5,8)             60.5444         estimate D2E/DX2                !
 ! D19   D(9,4,5,6)             -0.6033         estimate D2E/DX2                !
 ! D20   D(9,4,5,7)            119.3274         estimate D2E/DX2                !
 ! D21   D(9,4,5,8)           -120.6499         estimate D2E/DX2                !
 ! D22   D(1,4,9,10)           178.5607         estimate D2E/DX2                !
 ! D23   D(1,4,9,11)            -2.4793         estimate D2E/DX2                !
 ! D24   D(5,4,9,10)            -0.1264         estimate D2E/DX2                !
 ! D25   D(5,4,9,11)           178.8336         estimate D2E/DX2                !
 ! D26   D(4,9,11,12)           -8.0346         estimate D2E/DX2                !
 ! D27   D(4,9,11,13)         -127.867          estimate D2E/DX2                !
 ! D28   D(4,9,11,14)          113.5684         estimate D2E/DX2                !
 ! D29   D(10,9,11,12)         170.9664         estimate D2E/DX2                !
 ! D30   D(10,9,11,13)          51.134          estimate D2E/DX2                !
 ! D31   D(10,9,11,14)         -67.4306         estimate D2E/DX2                !
 ! D32   D(16,15,19,20)         60.2864         estimate D2E/DX2                !
 ! D33   D(16,15,19,24)       -119.1571         estimate D2E/DX2                !
 ! D34   D(17,15,19,20)        -59.5701         estimate D2E/DX2                !
 ! D35   D(17,15,19,24)        120.9864         estimate D2E/DX2                !
 ! D36   D(18,15,19,20)       -179.5983         estimate D2E/DX2                !
 ! D37   D(18,15,19,24)          0.9582         estimate D2E/DX2                !
 ! D38   D(15,19,20,21)        -52.5887         estimate D2E/DX2                !
 ! D39   D(15,19,20,22)       -172.1175         estimate D2E/DX2                !
 ! D40   D(15,19,20,23)         66.7643         estimate D2E/DX2                !
 ! D41   D(24,19,20,21)        126.8263         estimate D2E/DX2                !
 ! D42   D(24,19,20,22)          7.2975         estimate D2E/DX2                !
 ! D43   D(24,19,20,23)       -113.8206         estimate D2E/DX2                !
 ! D44   D(15,19,24,25)          0.5216         estimate D2E/DX2                !
 ! D45   D(15,19,24,26)       -178.3895         estimate D2E/DX2                !
 ! D46   D(20,19,24,25)       -178.8587         estimate D2E/DX2                !
 ! D47   D(20,19,24,26)          2.2302         estimate D2E/DX2                !
 ! D48   D(19,24,26,1)        -103.6568         estimate D2E/DX2                !
 ! D49   D(19,24,26,27)         20.4297         estimate D2E/DX2                !
 ! D50   D(19,24,26,28)        135.786          estimate D2E/DX2                !
 ! D51   D(25,24,26,1)          77.3903         estimate D2E/DX2                !
 ! D52   D(25,24,26,27)       -158.5232         estimate D2E/DX2                !
 ! D53   D(25,24,26,28)        -43.1669         estimate D2E/DX2                !
 --------------------------------------------------------------------------------
 Trust Radius=3.00D-01 FncErr=1.00D-07 GrdErr=1.00D-07 EigMax=2.50D+02 EigMin=1.00D-04
 Number of steps in this run=    138 maximum allowed number of steps=    168.
 GradGradGradGradGradGradGradGradGradGradGradGradGradGradGradGradGradGrad

 Leave Link  103 at Fri Sep 17 13:32:39 2021, MaxMem=   524288000 cpu:               0.0 elap:               0.0
 (Enter /opt/gaussian/g16_legacy/l202.exe)
                          Input orientation:                          
 ---------------------------------------------------------------------
 Center     Atomic      Atomic             Coordinates (Angstroms)
 Number     Number       Type             X           Y           Z
 ---------------------------------------------------------------------
      1          6           0       -0.865200   -0.285500    0.329900
      2          1           0       -1.065700    0.719100    0.726200
      3          1           0       -0.811200   -0.931000    1.214700
      4          6           0       -2.015500   -0.699900   -0.564400
      5          6           0       -2.611100    0.410600   -1.391800
      6          1           0       -3.444200    0.064300   -2.012600
      7          1           0       -2.991200    1.205900   -0.742200
      8          1           0       -1.856800    0.837500   -2.060200
      9          6           0       -2.519200   -1.948200   -0.629800
     10          1           0       -3.365300   -2.134700   -1.290800
     11          6           0       -2.039100   -3.164000    0.097700
     12          1           0       -1.100800   -3.007900    0.634600
     13          1           0       -1.873600   -3.975500   -0.618400
     14          1           0       -2.798000   -3.492000    0.814400
     15          6           0        3.400600    1.483900    1.509600
     16          1           0        3.167700    2.294700    2.207600
     17          1           0        4.310500    1.747200    0.960400
     18          1           0        3.617300    0.588100    2.101000
     19          6           0        2.256800    1.274600    0.551700
     20          6           0        1.927600    2.476100   -0.290600
     21          1           0        1.779000    3.353500    0.348200
     22          1           0        1.015200    2.356600   -0.879300
     23          1           0        2.750100    2.688400   -0.981200
     24          6           0        1.609400    0.094000    0.502600
     25          1           0        1.927200   -0.701100    1.177400
     26          6           0        0.476700   -0.296500   -0.409100
     27          1           0        0.435300    0.347100   -1.293500
     28          1           0        0.683600   -1.305300   -0.789300
 ---------------------------------------------------------------------
                    Distance matrix (angstroms):
                    1          2          3          4          5
     1  C    0.000000
     2  H    1.098397   0.000000
     3  H    1.096566   1.739607   0.000000
     4  C    1.514823   2.140404   2.160774   0.000000
     5  C    2.548916   2.639954   3.439967   1.507495   0.000000
     6  H    3.501558   3.686062   4.282380   2.173124   1.095158
     7  H    2.809546   2.469964   3.626045   2.148413   1.094970
     8  H    2.820812   2.898945   3.865985   2.150861   1.094518
     9  C    2.534031   3.326543   2.711852   1.347681   2.480530
    10  H    3.506666   4.183375   3.774897   2.099588   2.656609
    11  C    3.117326   4.052282   2.782394   2.551612   3.914532
    12  H    2.749511   3.728291   2.175752   2.757017   4.251287
    13  H    3.941097   4.949739   3.709168   3.279117   4.514413
    14  H    3.775195   4.554339   3.265936   3.210797   4.486930
    15  C    4.766500   4.598529   4.863946   6.197144   6.760964
    16  H    5.142711   4.753813   5.217532   6.596755   7.063996
    17  H    5.596184   5.478628   5.785260   6.952092   7.431547
    18  H    4.898242   4.882389   4.764956   6.363312   7.143117
    19  C    3.497140   3.373135   3.836257   4.837032   5.312263
    20  C    3.976328   3.616736   4.623341   5.070501   5.106734
    21  H    4.498272   3.895544   5.081033   5.626822   5.564282
    22  H    3.461035   3.096640   4.304519   4.315843   4.147243
    23  H    4.861426   4.621005   5.532169   5.862188   5.839472
    24  C    2.509480   2.756249   2.723420   3.861174   4.636983
    25  H    2.947622   3.343352   2.748287   4.310308   5.332245
    26  C    1.531972   2.167798   2.167488   2.529409   3.316655
    27  H    2.174146   2.543732   3.078696   2.763009   3.048647
    28  H    2.165960   3.074896   2.527952   2.775289   3.763292
                    6          7          8          9         10
     6  H    0.000000
     7  H    1.767025   0.000000
     8  H    1.766336   1.777556   0.000000
     9  C    2.611114   3.191201   3.200772   0.000000
    10  H    2.315777   3.405954   3.420749   1.089765   0.000000
    11  C    4.104826   4.550599   4.549920   1.495969   2.178577
    12  H    4.683760   4.819264   4.756110   2.175668   3.098000
    13  H    4.553083   5.302005   5.024345   2.127645   2.462892
    14  H    4.588766   4.952837   5.281454   2.132314   2.568260
    15  C    7.827672   6.782551   6.387610   7.169405   8.167858
    16  H    8.154875   6.915118   6.751529   7.641588   8.633567
    17  H    8.473857   7.517092   6.927277   7.926507   8.891285
    18  H    8.189069   7.220646   6.880665   7.179604   8.226460
    19  C    6.367249   5.405590   4.892319   5.881544   6.828334
    20  C    6.135006   5.100191   4.487558   6.281999   7.090463
    21  H    6.608633   5.343778   5.034847   6.894855   7.698733
    22  H    5.140550   4.170629   3.456960   5.575440   6.287280
    23  H    6.805809   5.934429   5.080709   7.027593   7.794630
    24  C    5.644997   4.894014   4.374389   4.743232   5.738556
    25  H    6.293955   5.613570   5.212293   4.959002   6.013134
    26  C    4.251452   3.794007   3.075274   3.428154   4.349407
    27  H    3.955705   3.575244   2.466180   3.799733   4.539152
    28  H    4.517853   4.451123   3.558147   3.270579   4.163292
                   11         12         13         14         15
    11  C    0.000000
    12  H    1.092262   0.000000
    13  H    1.094862   1.761669   0.000000
    14  H    1.094154   1.774026   1.772344   0.000000
    15  C    7.292926   6.419073   7.883566   7.979068   0.000000
    16  H    7.833253   6.986558   8.527391   8.427128   1.094917
    17  H    8.073510   7.211053   8.572339   8.831835   1.094927
    18  H    7.077169   6.110811   7.640129   7.710942   1.095066
    19  C    6.193710   5.442440   6.781806   6.952733   1.506538
    20  C    6.906245   6.332571   7.495313   7.692239   2.528816
    21  H    7.557675   6.988754   8.245608   8.247857   2.733833
    22  H    6.384380   5.962148   6.964821   7.184374   3.486916
    23  H    7.638786   7.063149   8.118977   8.497231   2.842192
    24  C    4.908163   4.121212   5.472546   5.690500   2.480780
    25  H    4.791990   3.845093   5.328478   5.499855   2.656217
    26  C    3.848201   3.305980   4.370670   4.736226   3.924338
    27  H    4.515077   4.163316   4.946883   5.443910   4.235881
    28  H    3.413888   2.847880   3.701141   4.413054   4.521799
                   16         17         18         19         20
    16  H    0.000000
    17  H    1.777992   0.000000
    18  H    1.768046   1.767769   0.000000
    19  C    2.147638   2.146642   2.173148   0.000000
    20  C    2.794952   2.788281   3.484161   1.503810   0.000000
    21  H    2.550865   3.059981   3.754876   2.142786   1.095435
    22  H    3.763780   3.822940   4.333671   2.181755   1.092393
    23  H    3.240036   2.662802   3.829263   2.142885   1.094763
    24  C    3.190361   3.199780   2.613557   1.347351   2.530774
    25  H    3.402201   3.423650   2.317652   2.098458   3.499946
    26  C    4.561022   4.555246   4.116611   2.561298   3.131527
    27  H    4.849418   4.696543   4.658952   2.753703   2.786648
    28  H    5.302090   5.053079   4.532703   3.305922   4.011885
                   21         22         23         24         25
    21  H    0.000000
    22  H    1.756120   0.000000
    23  H    1.775584   1.769280   0.000000
    24  C    3.267559   2.716998   3.199026   0.000000
    25  H    4.141173   3.796220   4.101881   1.090200   0.000000
    26  C    3.948669   2.747728   3.795428   1.505555   2.187381
    27  H    3.679558   2.132120   3.307192   2.160682   3.070804
    28  H    4.919169   3.677985   4.500765   2.117582   2.404061
                   26         27         28
    26  C    0.000000
    27  H    1.094577   0.000000
    28  H    1.097742   1.745364   0.000000
 Stoichiometry    C10H18
 Framework group  C1[X(C10H18)]
 Deg. of freedom    78
 Full point group                 C1      NOp   1
 Largest Abelian subgroup         C1      NOp   1
 Largest concise Abelian subgroup C1      NOp   1
                         Standard orientation:                         
 ---------------------------------------------------------------------
 Center     Atomic      Atomic             Coordinates (Angstroms)
 Number     Number       Type             X           Y           Z
 ---------------------------------------------------------------------
      1          6           0       -0.745814   -0.045476    0.580345
      2          1           0       -0.286566    0.606598    1.335571
      3          1           0       -0.871459   -1.012095    1.082658
      4          6           0       -2.090204    0.530279    0.185617
      5          6           0       -2.144047    2.035381    0.119963
      6          1           0       -3.137223    2.403129   -0.158848
      7          1           0       -1.893327    2.466963    1.094557
      8          1           0       -1.432544    2.412421   -0.621371
      9          6           0       -3.189337   -0.206000   -0.071374
     10          1           0       -4.114920    0.310424   -0.324734
     11          6           0       -3.306942   -1.697333   -0.075180
     12          1           0       -2.347591   -2.209954    0.024326
     13          1           0       -3.755148   -2.025102   -1.018790
     14          1           0       -3.958989   -2.020708    0.741787
     15          6           0        3.933092   -0.920073    0.330468
     16          1           0        4.322208   -0.557722    1.287617
     17          1           0        4.707403   -0.789544   -0.432598
     18          1           0        3.745720   -1.994111    0.432961
     19          6           0        2.691964   -0.156353   -0.051621
     20          6           0        2.901861    1.323890   -0.213686
     21          1           0        3.383837    1.735116    0.679942
     22          1           0        1.972959    1.880987   -0.355481
     23          1           0        3.548619    1.520265   -1.074875
     24          6           0        1.515341   -0.793270   -0.210523
     25          1           0        1.481831   -1.870731   -0.047762
     26          6           0        0.194719   -0.197047   -0.619389
     27          1           0        0.329709    0.763050   -1.127415
     28          1           0       -0.258313   -0.862973   -1.365271
 ---------------------------------------------------------------------
 Rotational constants (GHZ):           2.4779012           0.5324349           0.4581636
 Leave Link  202 at Fri Sep 17 13:32:39 2021, MaxMem=   524288000 cpu:               0.0 elap:               0.0
 (Enter /opt/gaussian/g16_legacy/l301.exe)
 Standard basis: 6-31G(d,p) (6D, 7F)
 Ernie: Thresh=  0.10000D-02 Tol=  0.10000D-05 Strict=F.
 There are   240 symmetry adapted cartesian basis functions of A   symmetry.
 There are   240 symmetry adapted basis functions of A   symmetry.
   240 basis functions,   406 primitive gaussians,   240 cartesian basis functions
    39 alpha electrons       39 beta electrons
       nuclear repulsion energy       513.2791080371 Hartrees.
 IExCor=    0 DFT=F Ex=HF Corr=None ExCW=0 ScaHFX=  1.000000
 ScaDFX=  1.000000  1.000000  1.000000  1.000000 ScalE2=  1.000000  1.000000
 IRadAn=      5 IRanWt=     -1 IRanGd=            0 ICorTp=0 IEmpDi=  4
 NAtoms=   28 NActive=   28 NUniq=   28 SFac= 1.00D+00 NAtFMM=   60 NAOKFM=F Big=F
 Integral buffers will be    131072 words long.
 Raffenetti 1 integral format.
 Two-electron integral symmetry is turned on.
 Leave Link  301 at Fri Sep 17 13:32:39 2021, MaxMem=   524288000 cpu:               0.1 elap:               0.1
 (Enter /opt/gaussian/g16_legacy/l302.exe)
 NPDir=0 NMtPBC=     1 NCelOv=     1 NCel=       1 NClECP=     1 NCelD=      1
         NCelK=      1 NCelE2=     1 NClLst=     1 CellRange=     0.0.
 One-electron integrals computed using PRISM.
 One-electron integral symmetry used in STVInt
 NBasis=   240 RedAO= T EigKep=  2.09D-03  NBF=   240
 NBsUse=   240 1.00D-06 EigRej= -1.00D+00 NBFU=   240
 Leave Link  302 at Fri Sep 17 13:32:39 2021, MaxMem=   524288000 cpu:               0.3 elap:               0.3
 (Enter /opt/gaussian/g16_legacy/l303.exe)
 DipDrv:  MaxL=1.
 Leave Link  303 at Fri Sep 17 13:32:39 2021, MaxMem=   524288000 cpu:               0.1 elap:               0.1
 (Enter /opt/gaussian/g16_legacy/l401.exe)
 ExpMin= 1.61D-01 ExpMax= 3.05D+03 ExpMxC= 4.57D+02 IAcc=3 IRadAn=         5 AccDes= 0.00D+00
 Harris functional with IExCor=  205 and IRadAn=       5 diagonalized for initial guess.
 HarFok:  IExCor=  205 AccDes= 0.00D+00 IRadAn=         5 IDoV= 1 UseB2=F ITyADJ=14
 ICtDFT=  3500011 ScaDFX=  1.000000  1.000000  1.000000  1.000000
 FoFCou: FMM=F IPFlag=           0 FMFlag=      100000 FMFlg1=           0
         NFxFlg=           0 DoJE=T BraDBF=F KetDBF=T FulRan=T
         wScrn=  0.000000 ICntrl=       500 IOpCl=  0 I1Cent=   200000004 NGrid=           0
         NMat0=    1 NMatS0=      1 NMatT0=    0 NMatD0=    1 NMtDS0=    0 NMtDT0=    0
 Petite list used in FoFCou.
 Harris En= -390.110069638359    
 JPrj=0 DoOrth=F DoCkMO=F.
 Leave Link  401 at Fri Sep 17 13:32:50 2021, MaxMem=   524288000 cpu:              10.9 elap:              10.9
 (Enter /opt/gaussian/g16_legacy/l502.exe)
 Keep R1 ints in memory in canonical form, NReq=425198025.
 FoFCou: FMM=F IPFlag=           0 FMFlag=           0 FMFlg1=           0
         NFxFlg=           0 DoJE=F BraDBF=F KetDBF=F FulRan=T
         wScrn=  0.000000 ICntrl=       600 IOpCl=  0 I1Cent=           0 NGrid=           0
         NMat0=    1 NMatS0=  28920 NMatT0=    0 NMatD0=    1 NMtDS0=    0 NMtDT0=    0
 Symmetry not used in FoFCou.
 Two-electron integral symmetry not used.
 Closed shell SCF:
 Using DIIS extrapolation, IDIIS=  1040.
 NGot=   524288000 LenX=   105970886 LenY=   105912845
 Requested convergence on RMS density matrix=1.00D-08 within 128 cycles.
 Requested convergence on MAX density matrix=1.00D-06.
 Requested convergence on             energy=1.00D-06.
 No special actions if energy rises.

 Cycle   1  Pass 1  IDiag  1:
 E= -388.532773858247    
 DIIS: error= 5.00D-02 at cycle   1 NSaved=   1.
 NSaved= 1 IEnMin= 1 EnMin= -388.532773858247     IErMin= 1 ErrMin= 5.00D-02
 ErrMax= 5.00D-02  0.00D+00 EMaxC= 1.00D-01 BMatC= 8.07D-01 BMatP= 8.07D-01
 IDIUse=3 WtCom= 5.00D-01 WtEn= 5.00D-01
 Coeff-Com:  0.100D+01
 Coeff-En:   0.100D+01
 Coeff:      0.100D+01
 Gap=     0.508 Goal=   None    Shift=    0.000
 GapD=    0.508 DampG=2.000 DampE=0.500 DampFc=1.0000 IDamp=-1.
 RMSDP=3.99D-03 MaxDP=1.15D-01              OVMax= 1.39D-01

 Cycle   2  Pass 1  IDiag  1:
 E= -389.074235430884     Delta-E=       -0.541461572637 Rises=F Damp=F
 DIIS: error= 1.46D-02 at cycle   2 NSaved=   2.
 NSaved= 2 IEnMin= 2 EnMin= -389.074235430884     IErMin= 2 ErrMin= 1.46D-02
 ErrMax= 1.46D-02  0.00D+00 EMaxC= 1.00D-01 BMatC= 8.64D-02 BMatP= 8.07D-01
 IDIUse=3 WtCom= 8.54D-01 WtEn= 1.46D-01
 Coeff-Com:  0.183D+00 0.817D+00
 Coeff-En:   0.000D+00 0.100D+01
 Coeff:      0.156D+00 0.844D+00
 Gap=     0.552 Goal=   None    Shift=    0.000
 RMSDP=1.62D-03 MaxDP=3.04D-02 DE=-5.41D-01 OVMax= 4.55D-02

 Cycle   3  Pass 1  IDiag  1:
 E= -389.151660044674     Delta-E=       -0.077424613791 Rises=F Damp=F
 DIIS: error= 2.66D-03 at cycle   3 NSaved=   3.
 NSaved= 3 IEnMin= 3 EnMin= -389.151660044674     IErMin= 3 ErrMin= 2.66D-03
 ErrMax= 2.66D-03  0.00D+00 EMaxC= 1.00D-01 BMatC= 3.01D-03 BMatP= 8.64D-02
 IDIUse=3 WtCom= 9.73D-01 WtEn= 2.66D-02
 Coeff-Com: -0.245D-01 0.102D+00 0.922D+00
 Coeff-En:   0.000D+00 0.000D+00 0.100D+01
 Coeff:     -0.239D-01 0.996D-01 0.924D+00
 Gap=     0.499 Goal=   None    Shift=    0.000
 RMSDP=2.54D-04 MaxDP=6.75D-03 DE=-7.74D-02 OVMax= 9.70D-03

 Cycle   4  Pass 1  IDiag  1:
 E= -389.155151989534     Delta-E=       -0.003491944860 Rises=F Damp=F
 DIIS: error= 4.95D-04 at cycle   4 NSaved=   4.
 NSaved= 4 IEnMin= 4 EnMin= -389.155151989534     IErMin= 4 ErrMin= 4.95D-04
 ErrMax= 4.95D-04  0.00D+00 EMaxC= 1.00D-01 BMatC= 9.59D-05 BMatP= 3.01D-03
 IDIUse=3 WtCom= 9.95D-01 WtEn= 4.95D-03
 Coeff-Com: -0.443D-02-0.831D-03 0.103D+00 0.903D+00
 Coeff-En:   0.000D+00 0.000D+00 0.000D+00 0.100D+01
 Coeff:     -0.441D-02-0.827D-03 0.102D+00 0.903D+00
 Gap=     0.500 Goal=   None    Shift=    0.000
 RMSDP=7.33D-05 MaxDP=1.75D-03 DE=-3.49D-03 OVMax= 3.51D-03

 Cycle   5  Pass 1  IDiag  1:
 E= -389.155277255507     Delta-E=       -0.000125265972 Rises=F Damp=F
 DIIS: error= 1.73D-04 at cycle   5 NSaved=   5.
 NSaved= 5 IEnMin= 5 EnMin= -389.155277255507     IErMin= 5 ErrMin= 1.73D-04
 ErrMax= 1.73D-04  0.00D+00 EMaxC= 1.00D-01 BMatC= 1.79D-05 BMatP= 9.59D-05
 IDIUse=3 WtCom= 9.98D-01 WtEn= 1.73D-03
 Coeff-Com:  0.248D-02-0.153D-01-0.106D+00 0.196D+00 0.923D+00
 Coeff-En:   0.000D+00 0.000D+00 0.000D+00 0.000D+00 0.100D+01
 Coeff:      0.247D-02-0.153D-01-0.105D+00 0.195D+00 0.923D+00
 Gap=     0.500 Goal=   None    Shift=    0.000
 RMSDP=3.09D-05 MaxDP=7.46D-04 DE=-1.25D-04 OVMax= 1.02D-03

 Cycle   6  Pass 1  IDiag  1:
 E= -389.155300876168     Delta-E=       -0.000023620662 Rises=F Damp=F
 DIIS: error= 3.73D-05 at cycle   6 NSaved=   6.
 NSaved= 6 IEnMin= 6 EnMin= -389.155300876168     IErMin= 6 ErrMin= 3.73D-05
 ErrMax= 3.73D-05  0.00D+00 EMaxC= 1.00D-01 BMatC= 5.50D-07 BMatP= 1.79D-05
 IDIUse=1 WtCom= 1.00D+00 WtEn= 0.00D+00
 Coeff-Com:  0.725D-03-0.330D-02-0.263D-01-0.273D-02 0.163D+00 0.868D+00
 Coeff:      0.725D-03-0.330D-02-0.263D-01-0.273D-02 0.163D+00 0.868D+00
 Gap=     0.500 Goal=   None    Shift=    0.000
 RMSDP=5.42D-06 MaxDP=1.67D-04 DE=-2.36D-05 OVMax= 3.13D-04

 Cycle   7  Pass 1  IDiag  1:
 E= -389.155301729517     Delta-E=       -0.000000853349 Rises=F Damp=F
 DIIS: error= 9.13D-06 at cycle   7 NSaved=   7.
 NSaved= 7 IEnMin= 7 EnMin= -389.155301729517     IErMin= 7 ErrMin= 9.13D-06
 ErrMax= 9.13D-06  0.00D+00 EMaxC= 1.00D-01 BMatC= 4.91D-08 BMatP= 5.50D-07
 IDIUse=1 WtCom= 1.00D+00 WtEn= 0.00D+00
 Coeff-Com: -0.554D-04 0.478D-03 0.325D-02-0.106D-01-0.462D-01 0.126D+00
 Coeff-Com:  0.927D+00
 Coeff:     -0.554D-04 0.478D-03 0.325D-02-0.106D-01-0.462D-01 0.126D+00
 Coeff:      0.927D+00
 Gap=     0.500 Goal=   None    Shift=    0.000
 RMSDP=1.69D-06 MaxDP=4.71D-05 DE=-8.53D-07 OVMax= 8.67D-05

 Cycle   8  Pass 1  IDiag  1:
 E= -389.155301814606     Delta-E=       -0.000000085089 Rises=F Damp=F
 DIIS: error= 2.98D-06 at cycle   8 NSaved=   8.
 NSaved= 8 IEnMin= 8 EnMin= -389.155301814606     IErMin= 8 ErrMin= 2.98D-06
 ErrMax= 2.98D-06  0.00D+00 EMaxC= 1.00D-01 BMatC= 4.90D-09 BMatP= 4.91D-08
 IDIUse=1 WtCom= 1.00D+00 WtEn= 0.00D+00
 Coeff-Com: -0.553D-04 0.226D-03 0.195D-02 0.331D-02-0.143D-01-0.848D-01
 Coeff-Com: -0.129D+00 0.122D+01
 Coeff:     -0.553D-04 0.226D-03 0.195D-02 0.331D-02-0.143D-01-0.848D-01
 Coeff:     -0.129D+00 0.122D+01
 Gap=     0.500 Goal=   None    Shift=    0.000
 RMSDP=7.76D-07 MaxDP=2.58D-05 DE=-8.51D-08 OVMax= 5.59D-05

 Cycle   9  Pass 1  IDiag  1:
 E= -389.155301829898     Delta-E=       -0.000000015292 Rises=F Damp=F
 DIIS: error= 1.35D-06 at cycle   9 NSaved=   9.
 NSaved= 9 IEnMin= 9 EnMin= -389.155301829898     IErMin= 9 ErrMin= 1.35D-06
 ErrMax= 1.35D-06  0.00D+00 EMaxC= 1.00D-01 BMatC= 6.51D-10 BMatP= 4.90D-09
 IDIUse=1 WtCom= 1.00D+00 WtEn= 0.00D+00
 Coeff-Com:  0.122D-04-0.776D-04-0.580D-03 0.123D-02 0.419D-02 0.523D-02
 Coeff-Com: -0.723D-01-0.196D+00 0.126D+01
 Coeff:      0.122D-04-0.776D-04-0.580D-03 0.123D-02 0.419D-02 0.523D-02
 Coeff:     -0.723D-01-0.196D+00 0.126D+01
 Gap=     0.500 Goal=   None    Shift=    0.000
 RMSDP=2.99D-07 MaxDP=1.28D-05 DE=-1.53D-08 OVMax= 2.61D-05

 Cycle  10  Pass 1  IDiag  1:
 E= -389.155301832088     Delta-E=       -0.000000002190 Rises=F Damp=F
 DIIS: error= 4.11D-07 at cycle  10 NSaved=  10.
 NSaved=10 IEnMin=10 EnMin= -389.155301832088     IErMin=10 ErrMin= 4.11D-07
 ErrMax= 4.11D-07  0.00D+00 EMaxC= 1.00D-01 BMatC= 8.48D-11 BMatP= 6.51D-10
 IDIUse=1 WtCom= 1.00D+00 WtEn= 0.00D+00
 Coeff-Com:  0.803D-05-0.368D-04-0.304D-03-0.200D-03 0.163D-02 0.134D-01
 Coeff-Com:  0.123D-01-0.192D+00 0.976D-01 0.107D+01
 Coeff:      0.803D-05-0.368D-04-0.304D-03-0.200D-03 0.163D-02 0.134D-01
 Coeff:      0.123D-01-0.192D+00 0.976D-01 0.107D+01
 Gap=     0.500 Goal=   None    Shift=    0.000
 RMSDP=1.08D-07 MaxDP=3.31D-06 DE=-2.19D-09 OVMax= 8.53D-06

 Cycle  11  Pass 1  IDiag  1:
 E= -389.155301832311     Delta-E=       -0.000000000223 Rises=F Damp=F
 DIIS: error= 1.55D-07 at cycle  11 NSaved=  11.
 NSaved=11 IEnMin=11 EnMin= -389.155301832311     IErMin=11 ErrMin= 1.55D-07
 ErrMax= 1.55D-07  0.00D+00 EMaxC= 1.00D-01 BMatC= 5.88D-12 BMatP= 8.48D-11
 IDIUse=1 WtCom= 1.00D+00 WtEn= 0.00D+00
 Coeff-Com: -0.512D-06 0.460D-05 0.338D-04-0.107D-03-0.456D-03 0.978D-03
 Coeff-Com:  0.872D-02 0.502D-02-0.108D+00 0.921D-01 0.100D+01
 Coeff:     -0.512D-06 0.460D-05 0.338D-04-0.107D-03-0.456D-03 0.978D-03
 Coeff:      0.872D-02 0.502D-02-0.108D+00 0.921D-01 0.100D+01
 Gap=     0.500 Goal=   None    Shift=    0.000
 RMSDP=2.30D-08 MaxDP=1.01D-06 DE=-2.23D-10 OVMax= 2.02D-06

 Cycle  12  Pass 1  IDiag  1:
 E= -389.155301832332     Delta-E=       -0.000000000021 Rises=F Damp=F
 DIIS: error= 4.41D-08 at cycle  12 NSaved=  12.
 NSaved=12 IEnMin=12 EnMin= -389.155301832332     IErMin=12 ErrMin= 4.41D-08
 ErrMax= 4.41D-08  0.00D+00 EMaxC= 1.00D-01 BMatC= 9.44D-13 BMatP= 5.88D-12
 IDIUse=1 WtCom= 1.00D+00 WtEn= 0.00D+00
 Coeff-Com: -0.945D-06 0.495D-05 0.398D-04 0.178D-05-0.291D-03-0.124D-02
 Coeff-Com:  0.337D-03 0.206D-01-0.365D-01-0.106D+00 0.192D+00 0.931D+00
 Coeff:     -0.945D-06 0.495D-05 0.398D-04 0.178D-05-0.291D-03-0.124D-02
 Coeff:      0.337D-03 0.206D-01-0.365D-01-0.106D+00 0.192D+00 0.931D+00
 Gap=     0.500 Goal=   None    Shift=    0.000
 RMSDP=9.73D-09 MaxDP=2.60D-07 DE=-2.14D-11 OVMax= 6.37D-07

 SCF Done:  E(RHF) =  -389.155301832     A.U. after   12 cycles
            NFock= 12  Conv=0.97D-08     -V/T= 2.0014
 KE= 3.886246200320D+02 PE=-1.931192654087D+03 EE= 6.401336241854D+02
 Leave Link  502 at Fri Sep 17 13:33:23 2021, MaxMem=   524288000 cpu:              33.1 elap:              33.4
 (Enter /opt/gaussian/g16_legacy/l801.exe)
 ExpMin= 1.61D-01 ExpMax= 3.05D+03 ExpMxC= 4.57D+02 IAcc=3 IRadAn=         5 AccDes= 0.00D+00
 HarFok:  IExCor=  205 AccDes= 0.00D+00 IRadAn=         5 IDoV=-2 UseB2=F ITyADJ=14
 ICtDFT= 12500011 ScaDFX=  1.000000  1.000000  1.000000  1.000000
 Largest valence mixing into a core orbital is  1.97D-04
 Largest core mixing into a valence orbital is  3.52D-05
 Range of M.O.s used for correlation:    11   240
 NBasis=   240 NAE=    39 NBE=    39 NFC=    10 NFV=     0
 NROrb=    230 NOA=    29 NOB=    29 NVA=   201 NVB=   201
 Leave Link  801 at Fri Sep 17 13:33:25 2021, MaxMem=   524288000 cpu:               1.6 elap:               2.0
 (Enter /opt/gaussian/g16_legacy/l906.exe)
 Frozen-core derivative calculation, NFC=  10 NFV=   0.
 FulOut=F Deriv=T AODrv=T NAtomX=    28
   MMem=          89  MDisk=          29 MDiskD=          29
  W3Min=     2246400 MinDsk=     2795480 NBas6D=         240
 NBas2D=       29244    NTT=       28920    LW2=     2040000
    MDV=   523629461 MDiskM=       30186 NBas2p=       24099
 Fully direct method using O(ONN) memory.
 IMap=   1   2   3   4   5   6   7   8   9  10  11  12  13  14  15  16  17  18  19  20
 IMap=  21  22  23  24  25  26  27  28  29  30  31  32  33  34  35  36  37  38  39
 JobTyp=1 Pass  1:  I=  11 to  39 NPSUse=  1 ParTrn=F ParDer=F DoDerP=T.
 Spin components of T(2) and E(2):
     alpha-alpha T2 =       0.5711474567D-01 E2=     -0.1637336311D+00
     alpha-beta  T2 =       0.3617396386D+00 E2=     -0.1089188967D+01
     beta-beta   T2 =       0.5711474567D-01 E2=     -0.1637336311D+00
 The integrals were generated   1 times.
 ANorm=    0.1214894699D+01
 E2 =    -0.1416656230D+01 EUMP2 =    -0.39057195806191D+03
 Leave Link  906 at Fri Sep 17 13:37:42 2021, MaxMem=   524288000 cpu:             256.5 elap:             256.8
 (Enter /opt/gaussian/g16_legacy/l1002.exe)
 Minotr:  Closed shell wavefunction.
          Computing MP2/KS-MP2 derivatives.
          Using Z-Vector for PSCF gradient.
          Skipping F1 and S1 gradient terms here.
          IDoAtm=1111111111111111111111111111
          Frozen-core window.
          Direct CPHF calculation.
          Differentiating once with respect to electric field.
                with respect to dipole field.
          Differentiating once with respect to nuclear coordinates.
          Requested convergence is 1.0D-10 RMS, and 1.0D-09 maximum.
          NewPWx=F KeepS1=T KeepF1=T KeepIn=T MapXYZ=F SortEE=F KeepMc=T.
 Keep R1 ints in memory in canonical form, NReq=425201067.
 FoFCou: FMM=F IPFlag=           0 FMFlag=           0 FMFlg1=           0
         NFxFlg=           0 DoJE=F BraDBF=F KetDBF=F FulRan=T
         wScrn=  0.000000 ICntrl=       600 IOpCl=  0 I1Cent=           0 NGrid=           0
         NMat0=    1 NMatS0=  28920 NMatT0=    0 NMatD0=    1 NMtDS0=    0 NMtDT0=    0
 Symmetry not used in FoFCou.
 Two-electron integral symmetry not used.
          MDV=     524288000 using IRadAn=       5.
          Solving linear equations separately, MaxMat=       0.
          There are     1 degrees of freedom in the 1st order CPHF.  IDoFFX=0 NUNeed=     1.
 LinEq1:  Iter=  0 NonCon=     1 RMS=2.55D-03 Max=4.26D-02 NDo=     1
 AX will form     1 AO Fock derivatives at one time.
 LinEq1:  Iter=  1 NonCon=     1 RMS=6.89D-04 Max=1.12D-02 NDo=     1
 LinEq1:  Iter=  2 NonCon=     1 RMS=1.61D-04 Max=4.12D-03 NDo=     1
 LinEq1:  Iter=  3 NonCon=     1 RMS=4.42D-05 Max=5.11D-04 NDo=     1
 LinEq1:  Iter=  4 NonCon=     1 RMS=1.99D-05 Max=8.26D-04 NDo=     1
 LinEq1:  Iter=  5 NonCon=     1 RMS=4.80D-06 Max=8.79D-05 NDo=     1
 LinEq1:  Iter=  6 NonCon=     1 RMS=1.45D-06 Max=2.33D-05 NDo=     1
 LinEq1:  Iter=  7 NonCon=     1 RMS=4.00D-07 Max=4.12D-06 NDo=     1
 LinEq1:  Iter=  8 NonCon=     1 RMS=8.44D-08 Max=1.47D-06 NDo=     1
 LinEq1:  Iter=  9 NonCon=     1 RMS=2.22D-08 Max=5.47D-07 NDo=     1
 LinEq1:  Iter= 10 NonCon=     1 RMS=7.37D-09 Max=1.94D-07 NDo=     1
 LinEq1:  Iter= 11 NonCon=     1 RMS=2.35D-09 Max=7.26D-08 NDo=     1
 LinEq1:  Iter= 12 NonCon=     1 RMS=8.55D-10 Max=1.38D-08 NDo=     1
 LinEq1:  Iter= 13 NonCon=     1 RMS=2.39D-10 Max=3.45D-09 NDo=     1
 LinEq1:  Iter= 14 NonCon=     0 RMS=5.52D-11 Max=6.92D-10 NDo=     1
 Linear equations converged to 1.000D-10 1.000D-09 after    14 iterations.
 End of Minotr F.D. properties file   721 does not exist.
 End of Minotr F.D. properties file   722 does not exist.
 End of Minotr F.D. properties file   788 does not exist.
 Leave Link 1002 at Fri Sep 17 13:38:19 2021, MaxMem=   524288000 cpu:              36.6 elap:              36.6
 (Enter /opt/gaussian/g16_legacy/l601.exe)
 Copying SCF densities to generalized density rwf, IOpCl= 0 IROHF=0.

 **********************************************************************

            Population analysis using the SCF density.

 **********************************************************************

 Orbital symmetries:
       Occupied  (A) (A) (A) (A) (A) (A) (A) (A) (A) (A) (A) (A)
                 (A) (A) (A) (A) (A) (A) (A) (A) (A) (A) (A) (A)
                 (A) (A) (A) (A) (A) (A) (A) (A) (A) (A) (A) (A)
                 (A) (A) (A)
       Virtual   (A) (A) (A) (A) (A) (A) (A) (A) (A) (A) (A) (A)
                 (A) (A) (A) (A) (A) (A) (A) (A) (A) (A) (A) (A)
                 (A) (A) (A) (A) (A) (A) (A) (A) (A) (A) (A) (A)
                 (A) (A) (A) (A) (A) (A) (A) (A) (A) (A) (A) (A)
                 (A) (A) (A) (A) (A) (A) (A) (A) (A) (A) (A) (A)
                 (A) (A) (A) (A) (A) (A) (A) (A) (A) (A) (A) (A)
                 (A) (A) (A) (A) (A) (A) (A) (A) (A) (A) (A) (A)
                 (A) (A) (A) (A) (A) (A) (A) (A) (A) (A) (A) (A)
                 (A) (A) (A) (A) (A) (A) (A) (A) (A) (A) (A) (A)
                 (A) (A) (A) (A) (A) (A) (A) (A) (A) (A) (A) (A)
                 (A) (A) (A) (A) (A) (A) (A) (A) (A) (A) (A) (A)
                 (A) (A) (A) (A) (A) (A) (A) (A) (A) (A) (A) (A)
                 (A) (A) (A) (A) (A) (A) (A) (A) (A) (A) (A) (A)
                 (A) (A) (A) (A) (A) (A) (A) (A) (A) (A) (A) (A)
                 (A) (A) (A) (A) (A) (A) (A) (A) (A) (A) (A) (A)
                 (A) (A) (A) (A) (A) (A) (A) (A) (A) (A) (A) (A)
                 (A) (A) (A) (A) (A) (A) (A) (A) (A)
 The electronic state is 1-A.
 Alpha  occ. eigenvalues --  -11.23059 -11.22491 -11.21994 -11.21920 -11.21893
 Alpha  occ. eigenvalues --  -11.21649 -11.21538 -11.21500 -11.21457 -11.21435
 Alpha  occ. eigenvalues --   -1.10615  -1.08328  -1.01892  -0.98023  -0.93647
 Alpha  occ. eigenvalues --   -0.91775  -0.86739  -0.82690  -0.70608  -0.69412
 Alpha  occ. eigenvalues --   -0.64401  -0.61335  -0.60398  -0.59007  -0.58077
 Alpha  occ. eigenvalues --   -0.56878  -0.55468  -0.55040  -0.53553  -0.51979
 Alpha  occ. eigenvalues --   -0.51779  -0.51259  -0.50452  -0.49764  -0.47236
 Alpha  occ. eigenvalues --   -0.46642  -0.44231  -0.33256  -0.31615
 Alpha virt. eigenvalues --    0.18420   0.19609   0.22268   0.24508   0.24868
 Alpha virt. eigenvalues --    0.27279   0.28582   0.29021   0.30342   0.30570
 Alpha virt. eigenvalues --    0.31452   0.32295   0.32994   0.33605   0.33918
 Alpha virt. eigenvalues --    0.34861   0.36107   0.37175   0.38359   0.39995
 Alpha virt. eigenvalues --    0.40807   0.41938   0.42662   0.44321   0.45310
 Alpha virt. eigenvalues --    0.51884   0.54069   0.61045   0.62388   0.69420
 Alpha virt. eigenvalues --    0.71419   0.71711   0.74323   0.75991   0.76600
 Alpha virt. eigenvalues --    0.77888   0.78837   0.80149   0.80437   0.82526
 Alpha virt. eigenvalues --    0.82865   0.85806   0.89230   0.90311   0.92127
 Alpha virt. eigenvalues --    0.93068   0.94946   0.96558   0.97592   0.99409
 Alpha virt. eigenvalues --    0.99666   1.01112   1.02714   1.04773   1.06343
 Alpha virt. eigenvalues --    1.07246   1.08350   1.08465   1.10884   1.12201
 Alpha virt. eigenvalues --    1.13083   1.13493   1.14141   1.15108   1.15427
 Alpha virt. eigenvalues --    1.15972   1.16403   1.17990   1.18285   1.20092
 Alpha virt. eigenvalues --    1.20926   1.22024   1.22904   1.24887   1.26883
 Alpha virt. eigenvalues --    1.29780   1.39911   1.40851   1.44074   1.45169
 Alpha virt. eigenvalues --    1.46114   1.53925   1.55259   1.57487   1.59003
 Alpha virt. eigenvalues --    1.61321   1.62901   1.65442   1.68693   1.70718
 Alpha virt. eigenvalues --    1.74996   1.83307   1.90945   1.92636   1.95892
 Alpha virt. eigenvalues --    1.98116   2.01340   2.02512   2.04961   2.08418
 Alpha virt. eigenvalues --    2.09278   2.11236   2.11879   2.13547   2.13757
 Alpha virt. eigenvalues --    2.15745   2.17935   2.19186   2.23538   2.27676
 Alpha virt. eigenvalues --    2.27931   2.30154   2.32119   2.34933   2.35559
 Alpha virt. eigenvalues --    2.35639   2.35786   2.39412   2.39799   2.40226
 Alpha virt. eigenvalues --    2.41252   2.41850   2.42896   2.44990   2.45578
 Alpha virt. eigenvalues --    2.47183   2.49013   2.49665   2.49766   2.53202
 Alpha virt. eigenvalues --    2.56185   2.58402   2.60484   2.62611   2.64594
 Alpha virt. eigenvalues --    2.66043   2.67903   2.71569   2.72558   2.74075
 Alpha virt. eigenvalues --    2.76096   2.77694   2.80998   2.82554   2.84078
 Alpha virt. eigenvalues --    2.86962   2.90352   2.92350   2.93715   2.93884
 Alpha virt. eigenvalues --    2.97258   2.98945   3.00897   3.02348   3.04619
 Alpha virt. eigenvalues --    3.06567   3.07048   3.09533   3.11568   3.16237
 Alpha virt. eigenvalues --    3.17178   3.17507   3.19749   3.20507   3.20974
 Alpha virt. eigenvalues --    3.22293   3.25236   3.26470   3.27446   3.37024
 Alpha virt. eigenvalues --    3.39007   3.44383   3.45746   3.55489   3.57312
 Alpha virt. eigenvalues --    3.58492   3.60439   3.67984   3.73330   3.78354
 Alpha virt. eigenvalues --    3.78760   3.80290   3.81206   3.82235   3.82866
 Alpha virt. eigenvalues --    3.83539   3.85734   3.87953   3.89119   3.90871
 Alpha virt. eigenvalues --    3.96053   4.59177   4.62297   4.74495   4.82466
 Alpha virt. eigenvalues --    4.89199   4.92416   4.93233   5.07345   5.10306
 Alpha virt. eigenvalues --    5.16932
          Condensed to atoms (all electrons):
               1          2          3          4          5          6
     1  C    5.000748   0.412399   0.414389   0.339585  -0.058820   0.003652
     2  H    0.412399   0.583782  -0.030329  -0.045111  -0.004633   0.000092
     3  H    0.414389  -0.030329   0.576740  -0.040668   0.003305  -0.000107
     4  C    0.339585  -0.045111  -0.040668   4.957241   0.350741  -0.041415
     5  C   -0.058820  -0.004633   0.003305   0.350741   4.895152   0.406590
     6  H    0.003652   0.000092  -0.000107  -0.041415   0.406590   0.570214
     7  H   -0.003457   0.002508  -0.000014  -0.043206   0.397600  -0.027590
     8  H   -0.000423  -0.000305  -0.000036  -0.046037   0.399660  -0.028115
     9  C   -0.043512   0.001833  -0.002302   0.696653  -0.045820  -0.002762
    10  H    0.003081  -0.000112   0.000055  -0.036442  -0.006441   0.002176
    11  C   -0.007011   0.000131  -0.002042  -0.050642   0.003399   0.000140
    12  H   -0.002039   0.000010  -0.001243  -0.000447   0.000090   0.000004
    13  H    0.000233  -0.000010  -0.000035   0.000511  -0.000102  -0.000008
    14  H    0.000216   0.000029   0.000157  -0.001299  -0.000114  -0.000004
    15  C   -0.000105  -0.000032  -0.000001   0.000001  -0.000000   0.000000
    16  H    0.000021  -0.000005  -0.000001  -0.000000   0.000000  -0.000000
    17  H   -0.000004   0.000001   0.000000   0.000000  -0.000000   0.000000
    18  H   -0.000002  -0.000002   0.000002   0.000000  -0.000000  -0.000000
    19  C   -0.002757   0.000933   0.000602  -0.000035   0.000007  -0.000000
    20  C    0.000487   0.000129  -0.000011  -0.000018  -0.000017   0.000000
    21  H    0.000071  -0.000066  -0.000000  -0.000002   0.000000  -0.000000
    22  H    0.000080   0.000148  -0.000011  -0.000063   0.000095  -0.000001
    23  H   -0.000041   0.000012  -0.000000   0.000001  -0.000000   0.000000
    24  C   -0.062582  -0.000488  -0.001373   0.006102  -0.000076   0.000002
    25  H   -0.000350   0.000186   0.001132  -0.000118  -0.000002   0.000000
    26  C    0.325369  -0.042895  -0.041400  -0.056891  -0.000803  -0.000094
    27  H   -0.040034  -0.002360   0.004048  -0.002270  -0.000487  -0.000024
    28  H   -0.045277   0.004394  -0.002681  -0.001369   0.000304  -0.000006
               7          8          9         10         11         12
     1  C   -0.003457  -0.000423  -0.043512   0.003081  -0.007011  -0.002039
     2  H    0.002508  -0.000305   0.001833  -0.000112   0.000131   0.000010
     3  H   -0.000014  -0.000036  -0.002302   0.000055  -0.002042  -0.001243
     4  C   -0.043206  -0.046037   0.696653  -0.036442  -0.050642  -0.000447
     5  C    0.397600   0.399660  -0.045820  -0.006441   0.003399   0.000090
     6  H   -0.027590  -0.028115  -0.002762   0.002176   0.000140   0.000004
     7  H    0.593374  -0.035169  -0.000478   0.000246  -0.000113  -0.000001
     8  H   -0.035169   0.598041  -0.000963   0.000130  -0.000102   0.000001
     9  C   -0.000478  -0.000963   4.940003   0.404561   0.338339  -0.041992
    10  H    0.000246   0.000130   0.404561   0.559872  -0.043633   0.003343
    11  C   -0.000113  -0.000102   0.338339  -0.043633   4.903495   0.408020
    12  H   -0.000001   0.000001  -0.041992   0.003343   0.408020   0.575212
    13  H   -0.000004   0.000015  -0.042709  -0.002622   0.402920  -0.029439
    14  H    0.000021  -0.000005  -0.044538  -0.000244   0.400270  -0.027468
    15  C    0.000000  -0.000000  -0.000000   0.000000   0.000000  -0.000000
    16  H   -0.000000   0.000000   0.000000  -0.000000  -0.000000  -0.000000
    17  H   -0.000000   0.000000  -0.000000   0.000000  -0.000000   0.000000
    18  H   -0.000000  -0.000000   0.000000   0.000000  -0.000000   0.000000
    19  C   -0.000001   0.000017  -0.000002   0.000000   0.000000   0.000001
    20  C   -0.000002  -0.000029  -0.000000  -0.000000  -0.000000   0.000000
    21  H    0.000000  -0.000001   0.000000  -0.000000   0.000000  -0.000000
    22  H    0.000005   0.000222  -0.000001   0.000000  -0.000000   0.000000
    23  H    0.000000  -0.000000   0.000000   0.000000   0.000000   0.000000
    24  C    0.000000  -0.000082  -0.000010   0.000002  -0.000022   0.000034
    25  H    0.000000  -0.000000   0.000009  -0.000000  -0.000002   0.000035
    26  C    0.000024   0.000832  -0.003333  -0.000120   0.000493  -0.000174
    27  H    0.000076  -0.000581   0.000498   0.000002  -0.000024  -0.000005
    28  H    0.000006   0.000016   0.000945  -0.000032   0.000106   0.000114
              13         14         15         16         17         18
     1  C    0.000233   0.000216  -0.000105   0.000021  -0.000004  -0.000002
     2  H   -0.000010   0.000029  -0.000032  -0.000005   0.000001  -0.000002
     3  H   -0.000035   0.000157  -0.000001  -0.000001   0.000000   0.000002
     4  C    0.000511  -0.001299   0.000001  -0.000000   0.000000   0.000000
     5  C   -0.000102  -0.000114  -0.000000   0.000000  -0.000000  -0.000000
     6  H   -0.000008  -0.000004   0.000000  -0.000000   0.000000  -0.000000
     7  H   -0.000004   0.000021   0.000000  -0.000000  -0.000000  -0.000000
     8  H    0.000015  -0.000005  -0.000000   0.000000   0.000000  -0.000000
     9  C   -0.042709  -0.044538  -0.000000   0.000000  -0.000000   0.000000
    10  H   -0.002622  -0.000244   0.000000  -0.000000   0.000000   0.000000
    11  C    0.402920   0.400270   0.000000  -0.000000  -0.000000  -0.000000
    12  H   -0.029439  -0.027468  -0.000000  -0.000000   0.000000   0.000000
    13  H    0.585792  -0.033314  -0.000000   0.000000  -0.000000   0.000000
    14  H   -0.033314   0.585298   0.000000  -0.000000   0.000000  -0.000000
    15  C   -0.000000   0.000000   4.903430   0.396995   0.399277   0.405377
    16  H    0.000000  -0.000000   0.396995   0.594237  -0.034892  -0.027348
    17  H   -0.000000   0.000000   0.399277  -0.034892   0.593092  -0.027574
    18  H    0.000000  -0.000000   0.405377  -0.027348  -0.027574   0.568056
    19  C    0.000000  -0.000000   0.351819  -0.044205  -0.045804  -0.040405
    20  C   -0.000000   0.000000  -0.065374  -0.002146  -0.001091   0.003697
    21  H    0.000000  -0.000000  -0.003425   0.002838  -0.000508   0.000012
    22  H    0.000000  -0.000000   0.003707  -0.000072  -0.000024  -0.000109
    23  H   -0.000000   0.000000  -0.001680  -0.000367   0.002542  -0.000080
    24  C   -0.000002   0.000002  -0.044522  -0.000622  -0.001111  -0.002345
    25  H   -0.000000  -0.000000  -0.006706   0.000223   0.000153   0.002204
    26  C    0.000079  -0.000045   0.003141  -0.000086  -0.000123   0.000141
    27  H    0.000000  -0.000000   0.000062  -0.000003   0.000004   0.000006
    28  H   -0.000059   0.000018  -0.000098  -0.000002   0.000012  -0.000011
              19         20         21         22         23         24
     1  C   -0.002757   0.000487   0.000071   0.000080  -0.000041  -0.062582
     2  H    0.000933   0.000129  -0.000066   0.000148   0.000012  -0.000488
     3  H    0.000602  -0.000011  -0.000000  -0.000011  -0.000000  -0.001373
     4  C   -0.000035  -0.000018  -0.000002  -0.000063   0.000001   0.006102
     5  C    0.000007  -0.000017   0.000000   0.000095  -0.000000  -0.000076
     6  H   -0.000000   0.000000  -0.000000  -0.000001   0.000000   0.000002
     7  H   -0.000001  -0.000002   0.000000   0.000005   0.000000   0.000000
     8  H    0.000017  -0.000029  -0.000001   0.000222  -0.000000  -0.000082
     9  C   -0.000002  -0.000000   0.000000  -0.000001   0.000000  -0.000010
    10  H    0.000000  -0.000000  -0.000000   0.000000   0.000000   0.000002
    11  C    0.000000  -0.000000   0.000000  -0.000000   0.000000  -0.000022
    12  H    0.000001   0.000000  -0.000000   0.000000   0.000000   0.000034
    13  H    0.000000  -0.000000   0.000000   0.000000  -0.000000  -0.000002
    14  H   -0.000000   0.000000  -0.000000  -0.000000   0.000000   0.000002
    15  C    0.351819  -0.065374  -0.003425   0.003707  -0.001680  -0.044522
    16  H   -0.044205  -0.002146   0.002838  -0.000072  -0.000367  -0.000622
    17  H   -0.045804  -0.001091  -0.000508  -0.000024   0.002542  -0.001111
    18  H   -0.040405   0.003697   0.000012  -0.000109  -0.000080  -0.002345
    19  C    4.920154   0.348921  -0.043836  -0.036967  -0.043916   0.695509
    20  C    0.348921   4.906859   0.402437   0.405947   0.398573  -0.043610
    21  H   -0.043836   0.402437   0.585561  -0.029651  -0.033088   0.000408
    22  H   -0.036967   0.405947  -0.029651   0.570743  -0.026882  -0.002888
    23  H   -0.043916   0.398573  -0.033088  -0.026882   0.583073  -0.000744
    24  C    0.695509  -0.043610   0.000408  -0.002888  -0.000744   4.962290
    25  H   -0.035973   0.003360  -0.000112   0.000053  -0.000124   0.402998
    26  C   -0.048857  -0.007185   0.000276  -0.002349   0.000191   0.341685
    27  H    0.000560  -0.001878  -0.000035  -0.001473   0.000040  -0.043151
    28  H    0.000972   0.000145  -0.000012   0.000041   0.000033  -0.044010
              25         26         27         28
     1  C   -0.000350   0.325369  -0.040034  -0.045277
     2  H    0.000186  -0.042895  -0.002360   0.004394
     3  H    0.001132  -0.041400   0.004048  -0.002681
     4  C   -0.000118  -0.056891  -0.002270  -0.001369
     5  C   -0.000002  -0.000803  -0.000487   0.000304
     6  H    0.000000  -0.000094  -0.000024  -0.000006
     7  H    0.000000   0.000024   0.000076   0.000006
     8  H   -0.000000   0.000832  -0.000581   0.000016
     9  C    0.000009  -0.003333   0.000498   0.000945
    10  H   -0.000000  -0.000120   0.000002  -0.000032
    11  C   -0.000002   0.000493  -0.000024   0.000106
    12  H    0.000035  -0.000174  -0.000005   0.000114
    13  H   -0.000000   0.000079   0.000000  -0.000059
    14  H   -0.000000  -0.000045  -0.000000   0.000018
    15  C   -0.006706   0.003141   0.000062  -0.000098
    16  H    0.000223  -0.000086  -0.000003  -0.000002
    17  H    0.000153  -0.000123   0.000004   0.000012
    18  H    0.002204   0.000141   0.000006  -0.000011
    19  C   -0.035973  -0.048857   0.000560   0.000972
    20  C    0.003360  -0.007185  -0.001878   0.000145
    21  H   -0.000112   0.000276  -0.000035  -0.000012
    22  H    0.000053  -0.002349  -0.001473   0.000041
    23  H   -0.000124   0.000191   0.000040   0.000033
    24  C    0.402998   0.341685  -0.043151  -0.044010
    25  H    0.558295  -0.041958   0.003305  -0.003531
    26  C   -0.041958   4.978467   0.414990   0.415025
    27  H    0.003305   0.414990   0.579662  -0.029792
    28  H   -0.003531   0.415025  -0.029792   0.581185
 Mulliken charges:
               1
     1  C   -0.233921
     2  H    0.119760
     3  H    0.121826
     4  C    0.015198
     5  C   -0.339630
     6  H    0.117255
     7  H    0.116173
     8  H    0.112914
     9  C   -0.154418
    10  H    0.116180
    11  C   -0.353720
    12  H    0.115945
    13  H    0.118757
    14  H    0.121021
    15  C   -0.341865
    16  H    0.115436
    17  H    0.116050
    18  H    0.118380
    19  C    0.023264
    20  C   -0.349196
    21  H    0.119132
    22  H    0.119449
    23  H    0.122455
    24  C   -0.161394
    25  H    0.116923
    26  C   -0.234399
    27  H    0.118863
    28  H    0.123563
 Sum of Mulliken charges =  -0.00000
 Mulliken charges with hydrogens summed into heavy atoms:
               1
     1  C    0.007664
     4  C    0.015198
     5  C    0.006713
     9  C   -0.038238
    11  C    0.002002
    15  C    0.008001
    19  C    0.023264
    20  C    0.011840
    24  C   -0.044471
    26  C    0.008027
 Electronic spatial extent (au):  <R**2>=           2544.9918
 Charge=             -0.0000 electrons
 Dipole moment (field-independent basis, Debye):
    X=              0.3491    Y=              0.1466    Z=              0.0262  Tot=              0.3795
 Quadrupole moment (field-independent basis, Debye-Ang):
   XX=            -63.8825   YY=            -63.9189   ZZ=            -67.2163
   XY=              0.9690   XZ=              0.9085   YZ=             -0.2408
 Traceless Quadrupole moment (field-independent basis, Debye-Ang):
   XX=              1.1234   YY=              1.0870   ZZ=             -2.2104
   XY=              0.9690   XZ=              0.9085   YZ=             -0.2408
 Octapole moment (field-independent basis, Debye-Ang**2):
  XXX=              0.9263  YYY=             -2.8065  ZZZ=              0.8873  XYY=             -0.2790
  XXY=              1.7947  XXZ=             -2.7172  XZZ=              1.8071  YZZ=              1.3745
  YYZ=              0.5280  XYZ=             -0.3797
 Hexadecapole moment (field-independent basis, Debye-Ang**3):
 XXXX=          -2708.1355 YYYY=           -641.3385 ZZZZ=           -161.4609 XXXY=              7.6896
 XXXZ=             11.8650 YYYX=             -8.1739 YYYZ=             -1.4954 ZZZX=              2.8123
 ZZZY=              1.9626 XXYY=           -565.0394 XXZZ=           -492.0537 YYZZ=           -130.8311
 XXYZ=             -3.0891 YYXZ=              1.7794 ZZXY=              8.1563
 N-N= 5.132791080371D+02 E-N=-1.931192653088D+03  KE= 3.886246200320D+02
 No NMR shielding tensors so no spin-rotation constants.
 Leave Link  601 at Fri Sep 17 13:38:19 2021, MaxMem=   524288000 cpu:               0.3 elap:               0.4
 (Enter /opt/gaussian/g16_legacy/l701.exe)
 ... and contract with generalized density number  2.
 Compute integral first derivatives.
 Leave Link  701 at Fri Sep 17 13:38:20 2021, MaxMem=   524288000 cpu:               0.3 elap:               0.7
 (Enter /opt/gaussian/g16_legacy/l702.exe)
 L702 exits ... SP integral derivatives will be done elsewhere.
 Leave Link  702 at Fri Sep 17 13:38:20 2021, MaxMem=   524288000 cpu:               0.1 elap:               0.1
 (Enter /opt/gaussian/g16_legacy/l703.exe)
 Integral derivatives from FoFJK, PRISM(SPDF).
 Compute integral first derivatives, UseDBF=F ICtDFT=           0.
 Calling FoFJK, ICntrl=  10002127 FMM=F ISym2X=0 I1Cent= 0 IOpClX= 0 NMat=1 NMatS=1 NMatT=0.
 FoFJK:  IHMeth= 1 ICntrl=10002127 DoSepK=F KAlg= 0 I1Cent=           0 FoldK=F
 IRaf=         0 NMat=       1 IRICut=       1 DoRegI=T DoRafI=F ISym2E= 0 IDoP0=0 IntGTp=1.
 FoFCou: FMM=F IPFlag=           0 FMFlag=      100000 FMFlg1=         800
         NFxFlg=           0 DoJE=F BraDBF=F KetDBF=F FulRan=T
         wScrn=  0.000000 ICntrl=  10002127 IOpCl=  0 I1Cent=           0 NGrid=           0
         NMat0=    1 NMatS0=      1 NMatT0=    0 NMatD0=    1 NMtDS0=    0 NMtDT0=    0
 Symmetry not used in FoFCou.
 Leave Link  703 at Fri Sep 17 13:38:54 2021, MaxMem=   524288000 cpu:              33.6 elap:              34.0
 (Enter /opt/gaussian/g16_legacy/l716.exe)
 Dipole        = 1.00106365D-01 3.49711027D-02 3.62575331D-03
 ***** Axes restored to original set *****
 -------------------------------------------------------------------
 Center     Atomic                   Forces (Hartrees/Bohr)
 Number     Number              X              Y              Z
 -------------------------------------------------------------------
      1        6          -0.007829721   -0.004510328    0.001069741
      2        1           0.002312629   -0.001585536   -0.003457751
      3        1           0.001639796    0.000149630   -0.003616170
      4        6          -0.005536253    0.001019398    0.002405648
      5        6          -0.002078845   -0.001197340   -0.001761695
      6        1           0.003367998   -0.000507937    0.002345632
      7        1           0.002394869    0.000104014   -0.002388831
      8        1          -0.001762073    0.001933618    0.002033177
      9        6           0.002333235    0.001618352   -0.002236785
     10        1           0.001910077    0.002991867    0.000368084
     11        6           0.001909983   -0.001533252    0.001377128
     12        1          -0.003115256    0.001022707   -0.001060329
     13        1          -0.001231951    0.000515114    0.003242370
     14        1           0.002394382   -0.002237940   -0.000906291
     15        6           0.000024135   -0.002664865    0.002057750
     16        1           0.002842604   -0.000068256   -0.002087608
     17        1          -0.001507376    0.001861024    0.002352083
     18        1          -0.002037095    0.002302790   -0.003032782
     19        6          -0.001059183   -0.003063765    0.004430807
     20        6          -0.003755816   -0.000287180   -0.002832929
     21        1           0.002791663   -0.001589979   -0.001804696
     22        1           0.002842007   -0.001547201    0.001358541
     23        1          -0.001403524    0.002033924    0.001913805
     24        6           0.000856487   -0.001524143   -0.004799058
     25        1           0.000798048    0.003280155    0.000179885
     26        6           0.007564170    0.001751946    0.000212296
     27        1          -0.001075237    0.000057008    0.003067571
     28        1          -0.003589750    0.001676172    0.001570407
 -------------------------------------------------------------------
 Cartesian Forces:  Max     0.007829721 RMS     0.002540138
 Leave Link  716 at Fri Sep 17 13:38:55 2021, MaxMem=   524288000 cpu:               0.1 elap:               0.3
 (Enter /opt/gaussian/g16_legacy/l103.exe)

 GradGradGradGradGradGradGradGradGradGradGradGradGradGradGradGradGradGrad
 Berny optimization.
 FormGI is forming the generalized inverse of G from B-inverse, IUseBI=4.
 Internal  Forces:  Max     0.004130195 RMS     0.001892382
 Search for a local minimum.
 Step number   1 out of a maximum of  138
 All quantities printed in internal units (Hartrees-Bohrs-Radians)
 RMS Force = .18924D-02 SwitMx=.10000D-02 MixMth= 1
 Mixed Optimization -- RFO/linear search
 Second derivative matrix not updated -- first step.
 ITU=  0
     Eigenvalues ---    0.00343   0.00570   0.00667   0.00679   0.00692
     Eigenvalues ---    0.00716   0.00819   0.01219   0.01287   0.01570
     Eigenvalues ---    0.01642   0.02781   0.02785   0.04014   0.04133
     Eigenvalues ---    0.05351   0.05403   0.06981   0.07039   0.07087
     Eigenvalues ---    0.07092   0.07265   0.07301   0.07347   0.07505
     Eigenvalues ---    0.09279   0.09365   0.12769   0.12846   0.15999
     Eigenvalues ---    0.15999   0.16000   0.16000   0.16000   0.16000
     Eigenvalues ---    0.16000   0.16000   0.16000   0.16000   0.16000
     Eigenvalues ---    0.16000   0.16000   0.16000   0.21859   0.21867
     Eigenvalues ---    0.22000   0.22000   0.24993   0.24996   0.24998
     Eigenvalues ---    0.24999   0.29242   0.30871   0.31604   0.31701
     Eigenvalues ---    0.31801   0.31981   0.32804   0.33860   0.33933
     Eigenvalues ---    0.34065   0.34192   0.34223   0.34234   0.34245
     Eigenvalues ---    0.34249   0.34251   0.34257   0.34268   0.34289
     Eigenvalues ---    0.34296   0.34337   0.34538   0.34553   0.34790
     Eigenvalues ---    0.34840   0.55518   0.55589
 RFO step:  Lambda=-2.86789195D-03 EMin= 3.43021845D-03
 Linear search not attempted -- first point.
 Iteration  1 RMS(Cart)=  0.04040668 RMS(Int)=  0.00070812
 Iteration  2 RMS(Cart)=  0.00101801 RMS(Int)=  0.00015609
 Iteration  3 RMS(Cart)=  0.00000056 RMS(Int)=  0.00015609
 ITry= 1 IFail=0 DXMaxC= 1.47D-01 DCOld= 1.00D+10 DXMaxT= 3.00D-01 DXLimC= 3.00D+00 Rises=F
 Variable       Old X    -DE/DX   Delta X   Delta X   Delta X     New X
                                 (Linear)    (Quad)   (Total)
    R1        2.07567  -0.00312   0.00000  -0.00914  -0.00914   2.06653
    R2        2.07221  -0.00293   0.00000  -0.00852  -0.00852   2.06369
    R3        2.86260  -0.00348   0.00000  -0.01118  -0.01118   2.85142
    R4        2.89501   0.00162   0.00000   0.00548   0.00548   2.90049
    R5        2.84875  -0.00064   0.00000  -0.00201  -0.00201   2.84675
    R6        2.54675  -0.00381   0.00000  -0.00683  -0.00683   2.53992
    R7        2.06955  -0.00373   0.00000  -0.01081  -0.01081   2.05874
    R8        2.06919  -0.00217   0.00000  -0.00629  -0.00629   2.06290
    R9        2.06834  -0.00170   0.00000  -0.00492  -0.00492   2.06342
   R10        2.05936  -0.00222   0.00000  -0.00632  -0.00632   2.05304
   R11        2.82697   0.00309   0.00000   0.00934   0.00934   2.83631
   R12        2.06408  -0.00305   0.00000  -0.00876  -0.00876   2.05532
   R13        2.06899  -0.00269   0.00000  -0.00778  -0.00778   2.06120
   R14        2.06765  -0.00158   0.00000  -0.00457  -0.00457   2.06308
   R15        2.06909  -0.00199   0.00000  -0.00575  -0.00575   2.06334
   R16        2.06911  -0.00198   0.00000  -0.00575  -0.00575   2.06337
   R17        2.06938  -0.00392   0.00000  -0.01137  -0.01137   2.05801
   R18        2.84694  -0.00077   0.00000  -0.00240  -0.00240   2.84454
   R19        2.84179  -0.00045   0.00000  -0.00139  -0.00139   2.84039
   R20        2.54612  -0.00317   0.00000  -0.00567  -0.00567   2.54045
   R21        2.07007  -0.00270   0.00000  -0.00784  -0.00784   2.06223
   R22        2.06432  -0.00294   0.00000  -0.00843  -0.00843   2.05589
   R23        2.06880  -0.00187   0.00000  -0.00540  -0.00540   2.06340
   R24        2.06018  -0.00205   0.00000  -0.00584  -0.00584   2.05434
   R25        2.84509  -0.00140   0.00000  -0.00438  -0.00438   2.84071
   R26        2.06845  -0.00240   0.00000  -0.00695  -0.00695   2.06150
   R27        2.07443  -0.00276   0.00000  -0.00807  -0.00807   2.06636
    A1        1.82994   0.00206   0.00000   0.02219   0.02202   1.85197
    A2        1.90138  -0.00009   0.00000   0.00118   0.00118   1.90256
    A3        1.91825  -0.00275   0.00000  -0.02413  -0.02416   1.89408
    A4        1.93127  -0.00018   0.00000   0.00555   0.00557   1.93684
    A5        1.91970  -0.00200   0.00000  -0.01364  -0.01368   1.90601
    A6        1.95886   0.00287   0.00000   0.00936   0.00940   1.96826
    A7        2.00702   0.00174   0.00000   0.00721   0.00667   2.01370
    A8        2.17226  -0.00413   0.00000  -0.01595  -0.01647   2.15579
    A9        2.10369   0.00240   0.00000   0.00989   0.00934   2.11303
   A10        1.95923  -0.00265   0.00000  -0.01333  -0.01330   1.94593
   A11        1.92472   0.00166   0.00000   0.00910   0.00912   1.93384
   A12        1.92860   0.00226   0.00000   0.01203   0.01205   1.94065
   A13        1.87748   0.00112   0.00000   0.01042   0.01046   1.88793
   A14        1.87697   0.00055   0.00000   0.00551   0.00555   1.88253
   A15        1.89466  -0.00305   0.00000  -0.02455  -0.02455   1.87011
   A16        2.06933  -0.00196   0.00000  -0.01348  -0.01350   2.05583
   A17        2.22590  -0.00182   0.00000  -0.00812  -0.00814   2.21776
   A18        1.98784   0.00378   0.00000   0.02177   0.02175   2.00958
   A19        1.98077  -0.00283   0.00000  -0.01742  -0.01734   1.96343
   A20        1.91009   0.00237   0.00000   0.01549   0.01543   1.92552
   A21        1.91727   0.00386   0.00000   0.02276   0.02272   1.93999
   A22        1.87295   0.00044   0.00000   0.00436   0.00442   1.87737
   A23        1.89304  -0.00096   0.00000  -0.00756  -0.00747   1.88557
   A24        1.88712  -0.00306   0.00000  -0.01872  -0.01889   1.86824
   A25        1.89489  -0.00314   0.00000  -0.02545  -0.02545   1.86944
   A26        1.87924   0.00091   0.00000   0.00930   0.00934   1.88858
   A27        1.92487   0.00222   0.00000   0.01245   0.01248   1.93734
   A28        1.87880   0.00092   0.00000   0.00793   0.00796   1.88676
   A29        1.92347   0.00174   0.00000   0.00876   0.00878   1.93226
   A30        1.96057  -0.00277   0.00000  -0.01383  -0.01379   1.94677
   A31        1.99472   0.00147   0.00000   0.00584   0.00581   2.00053
   A32        2.10564   0.00187   0.00000   0.00745   0.00743   2.11307
   A33        2.18278  -0.00334   0.00000  -0.01318  -0.01320   2.16958
   A34        1.92092  -0.00000   0.00000  -0.00096  -0.00094   1.91998
   A35        1.97936  -0.00213   0.00000  -0.00962  -0.00961   1.96975
   A36        1.92176   0.00224   0.00000   0.01134   0.01136   1.93312
   A37        1.86354   0.00195   0.00000   0.01660   0.01661   1.88015
   A38        1.89068  -0.00237   0.00000  -0.02149  -0.02147   1.86920
   A39        1.88470   0.00023   0.00000   0.00336   0.00338   1.88807
   A40        2.06739  -0.00179   0.00000  -0.01218  -0.01258   2.05480
   A41        2.22792  -0.00179   0.00000  -0.00787  -0.00828   2.21964
   A42        1.98774   0.00360   0.00000   0.02087   0.02045   2.00820
   A43        1.94446   0.00330   0.00000   0.01369   0.01374   1.95820
   A44        1.93094  -0.00168   0.00000  -0.01698  -0.01706   1.91388
   A45        1.91640  -0.00337   0.00000  -0.02319  -0.02338   1.89302
   A46        1.94467  -0.00128   0.00000  -0.00725  -0.00720   1.93748
   A47        1.88209   0.00136   0.00000   0.02212   0.02224   1.90433
   A48        1.84173   0.00155   0.00000   0.01194   0.01168   1.85341
    D1        0.64512  -0.00075   0.00000   0.02450   0.02427   0.66939
    D2       -2.47470  -0.00170   0.00000  -0.03653  -0.03635  -2.51105
    D3        2.64814   0.00158   0.00000   0.05493   0.05474   2.70288
    D4       -0.47168   0.00062   0.00000  -0.00609  -0.00588  -0.47756
    D5       -1.48334   0.00091   0.00000   0.04804   0.04786  -1.43548
    D6        1.68003  -0.00005   0.00000  -0.01298  -0.01276   1.66727
    D7        1.04061  -0.00077   0.00000  -0.01187  -0.01178   1.02882
    D8       -1.13285  -0.00028   0.00000   0.00007   0.00019  -1.13266
    D9        3.12446   0.00082   0.00000   0.00927   0.00918   3.13363
   D10       -0.96557  -0.00055   0.00000  -0.01714  -0.01714  -0.98271
   D11       -3.13903  -0.00005   0.00000  -0.00520  -0.00516   3.13900
   D12        1.11828   0.00105   0.00000   0.00400   0.00382   1.12210
   D13       -3.12376  -0.00088   0.00000  -0.02095  -0.02089   3.13853
   D14        0.98597  -0.00038   0.00000  -0.00901  -0.00891   0.97705
   D15       -1.03992   0.00072   0.00000   0.00019   0.00007  -1.03985
   D16       -3.13128  -0.00069   0.00000  -0.04812  -0.04842   3.10349
[...]
                 (A) (A) (A) (A) (A) (A) (A) (A) (A) (A) (A) (A)
                 (A) (A) (A) (A) (A) (A) (A) (A) (A) (A) (A) (A)
                 (A) (A) (A) (A) (A) (A) (A) (A) (A) (A) (A) (A)
                 (A) (A) (A) (A) (A) (A) (A) (A) (A) (A) (A) (A)
                 (A) (A) (A) (A) (A) (A) (A) (A) (A) (A) (A) (A)
                 (A) (A) (A) (A) (A) (A) (A) (A) (A) (A) (A) (A)
                 (A) (A) (A) (A) (A) (A) (A) (A) (A) (A) (A) (A)
                 (A) (A) (A) (A) (A) (A) (A) (A) (A) (A) (A) (A)
                 (A) (A) (A) (A) (A) (A) (A) (A) (A) (A) (A) (A)
                 (A) (A) (A) (A) (A) (A) (A) (A) (A) (A) (A) (A)
                 (A) (A) (A) (A) (A) (A) (A) (A) (A) (A) (A) (A)
                 (A) (A) (A) (A) (A) (A) (A) (A) (A) (A) (A) (A)
                 (A) (A) (A) (A) (A) (A) (A) (A) (A)
 The electronic state is 1-A.
 Alpha  occ. eigenvalues --  -11.23028 -11.22456 -11.21863 -11.21726 -11.21721
 Alpha  occ. eigenvalues --  -11.21541 -11.21497 -11.21449 -11.21393 -11.21358
 Alpha  occ. eigenvalues --   -1.10803  -1.08495  -1.01828  -0.98138  -0.93839
 Alpha  occ. eigenvalues --   -0.91936  -0.86954  -0.82861  -0.70567  -0.69489
 Alpha  occ. eigenvalues --   -0.64754  -0.61539  -0.60720  -0.58828  -0.58414
 Alpha  occ. eigenvalues --   -0.56814  -0.55405  -0.54979  -0.53298  -0.52217
 Alpha  occ. eigenvalues --   -0.51714  -0.51214  -0.50653  -0.50166  -0.47383
 Alpha  occ. eigenvalues --   -0.46917  -0.44458  -0.33328  -0.31563
 Alpha virt. eigenvalues --    0.18100   0.19932   0.22053   0.24536   0.24955
 Alpha virt. eigenvalues --    0.27424   0.28601   0.28877   0.30353   0.30694
 Alpha virt. eigenvalues --    0.31966   0.32601   0.32969   0.33726   0.34466
 Alpha virt. eigenvalues --    0.35524   0.36421   0.37370   0.38662   0.39972
 Alpha virt. eigenvalues --    0.40998   0.42095   0.42777   0.44262   0.45477
 Alpha virt. eigenvalues --    0.51938   0.54227   0.61292   0.62632   0.69521
 Alpha virt. eigenvalues --    0.71676   0.71855   0.74127   0.75627   0.76300
 Alpha virt. eigenvalues --    0.77310   0.78587   0.80192   0.80428   0.82510
 Alpha virt. eigenvalues --    0.83060   0.85963   0.89706   0.90634   0.91906
 Alpha virt. eigenvalues --    0.92727   0.94246   0.96733   0.97890   0.99038
 Alpha virt. eigenvalues --    0.99663   1.01316   1.02330   1.04636   1.06421
 Alpha virt. eigenvalues --    1.06946   1.08561   1.08610   1.11036   1.12563
 Alpha virt. eigenvalues --    1.13528   1.14242   1.14315   1.15516   1.15561
 Alpha virt. eigenvalues --    1.15995   1.16443   1.18511   1.18881   1.20423
 Alpha virt. eigenvalues --    1.21361   1.22874   1.23837   1.26678   1.27279
 Alpha virt. eigenvalues --    1.29587   1.40505   1.41229   1.45131   1.46302
 Alpha virt. eigenvalues --    1.47303   1.54539   1.56916   1.57904   1.58162
 Alpha virt. eigenvalues --    1.61580   1.62900   1.65166   1.67986   1.70099
 Alpha virt. eigenvalues --    1.73688   1.82808   1.91104   1.92024   1.96649
 Alpha virt. eigenvalues --    1.98629   2.01394   2.02264   2.04662   2.08570
 Alpha virt. eigenvalues --    2.09659   2.11023   2.11867   2.13286   2.14333
 Alpha virt. eigenvalues --    2.15615   2.17830   2.19386   2.23464   2.28302
 Alpha virt. eigenvalues --    2.29342   2.30634   2.33018   2.35331   2.35655
 Alpha virt. eigenvalues --    2.35947   2.36091   2.39306   2.40246   2.40800
 Alpha virt. eigenvalues --    2.42218   2.43338   2.43738   2.45452   2.46063
 Alpha virt. eigenvalues --    2.47468   2.49490   2.50160   2.50478   2.53353
 Alpha virt. eigenvalues --    2.56171   2.59443   2.61268   2.62977   2.65059
 Alpha virt. eigenvalues --    2.67062   2.68311   2.71449   2.72617   2.74255
 Alpha virt. eigenvalues --    2.76086   2.77474   2.80595   2.82947   2.83712
 Alpha virt. eigenvalues --    2.86556   2.90534   2.92645   2.94406   2.94575
 Alpha virt. eigenvalues --    2.97681   2.98672   3.01242   3.02716   3.05048
 Alpha virt. eigenvalues --    3.06983   3.08131   3.09712   3.12652   3.17075
 Alpha virt. eigenvalues --    3.17580   3.18813   3.20184   3.20611   3.22304
 Alpha virt. eigenvalues --    3.23445   3.25849   3.26685   3.27777   3.38376
 Alpha virt. eigenvalues --    3.40097   3.45764   3.46979   3.56086   3.58279
 Alpha virt. eigenvalues --    3.59222   3.61997   3.68641   3.74872   3.78914
 Alpha virt. eigenvalues --    3.79698   3.81279   3.82681   3.83341   3.84006
 Alpha virt. eigenvalues --    3.84104   3.86511   3.88184   3.89137   3.91421
 Alpha virt. eigenvalues --    3.97579   4.59401   4.62757   4.74521   4.82179
 Alpha virt. eigenvalues --    4.89167   4.92294   4.93230   5.07407   5.10903
 Alpha virt. eigenvalues --    5.17835
          Condensed to atoms (all electrons):
               1          2          3          4          5          6
     1  C    5.003997   0.412745   0.413411   0.339222  -0.057161   0.003819
     2  H    0.412745   0.584867  -0.028359  -0.045647  -0.004621   0.000114
     3  H    0.413411  -0.028359   0.576310  -0.039654   0.003215  -0.000111
     4  C    0.339222  -0.045647  -0.039654   4.951262   0.352880  -0.042642
     5  C   -0.057161  -0.004621   0.003215   0.352880   4.891657   0.407271
     6  H    0.003819   0.000114  -0.000111  -0.042642   0.407271   0.568320
     7  H   -0.003571   0.002410  -0.000037  -0.041600   0.397676  -0.026708
     8  H   -0.000045  -0.000557  -0.000012  -0.045807   0.400489  -0.027516
     9  C   -0.046576   0.002347  -0.001941   0.696859  -0.046080  -0.002982
    10  H    0.003280  -0.000115   0.000029  -0.037937  -0.006573   0.002347
    11  C   -0.007739   0.000152  -0.002699  -0.049997   0.003357   0.000133
    12  H   -0.002166   0.000038  -0.001508  -0.000577   0.000102   0.000005
    13  H    0.000295  -0.000013  -0.000067  -0.000357  -0.000097  -0.000005
    14  H    0.000167   0.000018   0.000160  -0.000541  -0.000105  -0.000006
    15  C   -0.000102  -0.000045  -0.000001   0.000002  -0.000000   0.000000
    16  H    0.000024  -0.000008  -0.000001  -0.000000   0.000000  -0.000000
    17  H   -0.000005   0.000002   0.000000   0.000000  -0.000000   0.000000
    18  H   -0.000003  -0.000002   0.000002   0.000000  -0.000000  -0.000000
    19  C   -0.004098   0.001256   0.000622  -0.000004   0.000007  -0.000000
    20  C    0.000549   0.000191  -0.000016  -0.000019  -0.000025   0.000000
    21  H    0.000120  -0.000099  -0.000001  -0.000004   0.000001  -0.000000
    22  H   -0.000058   0.000094  -0.000011  -0.000061   0.000096  -0.000001
    23  H   -0.000041   0.000017   0.000000   0.000001  -0.000000   0.000000
    24  C   -0.062090   0.000057  -0.001230   0.006210  -0.000074   0.000002
    25  H   -0.000091   0.000171   0.001049  -0.000105  -0.000002   0.000000
    26  C    0.331128  -0.045729  -0.042384  -0.055684  -0.001011  -0.000108
    27  H   -0.042601  -0.002340   0.004316  -0.002245  -0.000436  -0.000040
    28  H   -0.046717   0.004692  -0.002896  -0.001441   0.000280  -0.000004
               7          8          9         10         11         12
     1  C   -0.003571  -0.000045  -0.046576   0.003280  -0.007739  -0.002166
     2  H    0.002410  -0.000557   0.002347  -0.000115   0.000152   0.000038
     3  H   -0.000037  -0.000012  -0.001941   0.000029  -0.002699  -0.001508
     4  C   -0.041600  -0.045807   0.696859  -0.037937  -0.049997  -0.000577
     5  C    0.397676   0.400489  -0.046080  -0.006573   0.003357   0.000102
     6  H   -0.026708  -0.027516  -0.002982   0.002347   0.000133   0.000005
     7  H    0.591603  -0.037732  -0.000465   0.000218  -0.000104   0.000001
     8  H   -0.037732   0.599593  -0.000883   0.000143  -0.000102  -0.000002
     9  C   -0.000465  -0.000883   4.938271   0.404337   0.340912  -0.043875
    10  H    0.000218   0.000143   0.404337   0.559262  -0.041317   0.003330
    11  C   -0.000104  -0.000102   0.340912  -0.041317   4.898015   0.409145
    12  H    0.000001  -0.000002  -0.043875   0.003330   0.409145   0.577276
    13  H   -0.000004   0.000016  -0.041711  -0.001238   0.401889  -0.029082
    14  H    0.000017  -0.000004  -0.041774  -0.001163   0.401438  -0.027817
    15  C    0.000000  -0.000000  -0.000000   0.000000   0.000000  -0.000000
    16  H   -0.000000   0.000000   0.000000  -0.000000  -0.000000  -0.000000
    17  H    0.000000   0.000000  -0.000000   0.000000  -0.000000   0.000000
    18  H   -0.000000  -0.000000  -0.000000   0.000000  -0.000000   0.000000
    19  C   -0.000001   0.000021  -0.000003   0.000000   0.000000   0.000001
    20  C   -0.000001  -0.000043  -0.000000  -0.000000  -0.000000   0.000000
    21  H    0.000000  -0.000001   0.000000  -0.000000   0.000000  -0.000000
    22  H   -0.000000   0.000361  -0.000001   0.000000  -0.000000   0.000000
    23  H    0.000000  -0.000000   0.000000   0.000000   0.000000   0.000000
    24  C    0.000003  -0.000104   0.000036   0.000002  -0.000027   0.000064
    25  H    0.000000  -0.000000   0.000007  -0.000000  -0.000002   0.000025
    26  C    0.000075   0.000669  -0.004455  -0.000120   0.000509  -0.000554
    27  H    0.000058  -0.000466   0.000648   0.000001  -0.000030  -0.000004
    28  H    0.000005  -0.000003   0.001236  -0.000038   0.000051   0.000016
              13         14         15         16         17         18
     1  C    0.000295   0.000167  -0.000102   0.000024  -0.000005  -0.000003
     2  H   -0.000013   0.000018  -0.000045  -0.000008   0.000002  -0.000002
     3  H   -0.000067   0.000160  -0.000001  -0.000001   0.000000   0.000002
     4  C   -0.000357  -0.000541   0.000002  -0.000000   0.000000   0.000000
     5  C   -0.000097  -0.000105  -0.000000   0.000000  -0.000000  -0.000000
     6  H   -0.000005  -0.000006   0.000000  -0.000000   0.000000  -0.000000
     7  H   -0.000004   0.000017   0.000000  -0.000000   0.000000  -0.000000
     8  H    0.000016  -0.000004  -0.000000   0.000000   0.000000  -0.000000
     9  C   -0.041711  -0.041774  -0.000000   0.000000  -0.000000  -0.000000
    10  H   -0.001238  -0.001163   0.000000  -0.000000   0.000000   0.000000
    11  C    0.401889   0.401438   0.000000  -0.000000  -0.000000  -0.000000
    12  H   -0.029082  -0.027817  -0.000000  -0.000000   0.000000   0.000000
    13  H    0.585671  -0.035520  -0.000000   0.000000  -0.000000  -0.000000
    14  H   -0.035520   0.584890   0.000000  -0.000000   0.000000  -0.000000
    15  C   -0.000000   0.000000   4.900552   0.398175   0.398829   0.406165
    16  H    0.000000  -0.000000   0.398175   0.594540  -0.037823  -0.026667
    17  H   -0.000000   0.000000   0.398829  -0.037823   0.593696  -0.026546
    18  H   -0.000000  -0.000000   0.406165  -0.026667  -0.026546   0.565965
    19  C    0.000000  -0.000000   0.353472  -0.043823  -0.044307  -0.041665
    20  C   -0.000000   0.000000  -0.065053  -0.001990  -0.001177   0.003789
    21  H    0.000000  -0.000000  -0.002670   0.002769  -0.000486  -0.000029
    22  H    0.000000  -0.000000   0.003758  -0.000068  -0.000032  -0.000115
    23  H   -0.000000   0.000000  -0.002204  -0.000448   0.002752  -0.000055
    24  C   -0.000007   0.000002  -0.044228  -0.000470  -0.001279  -0.002577
    25  H   -0.000000  -0.000000  -0.006998   0.000180   0.000188   0.002368
    26  C    0.000149  -0.000037   0.003136  -0.000071  -0.000128   0.000144
    27  H   -0.000000  -0.000000   0.000050  -0.000004   0.000006   0.000007
    28  H   -0.000081   0.000025  -0.000091  -0.000002   0.000009  -0.000009
              19         20         21         22         23         24
     1  C   -0.004098   0.000549   0.000120  -0.000058  -0.000041  -0.062090
     2  H    0.001256   0.000191  -0.000099   0.000094   0.000017   0.000057
     3  H    0.000622  -0.000016  -0.000001  -0.000011   0.000000  -0.001230
     4  C   -0.000004  -0.000019  -0.000004  -0.000061   0.000001   0.006210
     5  C    0.000007  -0.000025   0.000001   0.000096  -0.000000  -0.000074
     6  H   -0.000000   0.000000  -0.000000  -0.000001   0.000000   0.000002
     7  H   -0.000001  -0.000001   0.000000  -0.000000   0.000000   0.000003
     8  H    0.000021  -0.000043  -0.000001   0.000361  -0.000000  -0.000104
     9  C   -0.000003  -0.000000   0.000000  -0.000001   0.000000   0.000036
    10  H    0.000000  -0.000000  -0.000000   0.000000   0.000000   0.000002
    11  C    0.000000  -0.000000   0.000000  -0.000000   0.000000  -0.000027
    12  H    0.000001   0.000000  -0.000000   0.000000   0.000000   0.000064
    13  H    0.000000  -0.000000   0.000000   0.000000  -0.000000  -0.000007
    14  H   -0.000000   0.000000  -0.000000  -0.000000   0.000000   0.000002
    15  C    0.353472  -0.065053  -0.002670   0.003758  -0.002204  -0.044228
    16  H   -0.043823  -0.001990   0.002769  -0.000068  -0.000448  -0.000470
    17  H   -0.044307  -0.001177  -0.000486  -0.000032   0.002752  -0.001279
    18  H   -0.041665   0.003789  -0.000029  -0.000115  -0.000055  -0.002577
    19  C    4.915064   0.350683  -0.043358  -0.037727  -0.043642   0.696285
    20  C    0.350683   4.904567   0.401034   0.406928   0.400306  -0.044156
    21  H   -0.043358   0.401034   0.586876  -0.028092  -0.035758  -0.000024
    22  H   -0.037727   0.406928  -0.028092   0.570628  -0.026774  -0.003150
    23  H   -0.043642   0.400306  -0.035758  -0.026774   0.585123  -0.000377
    24  C    0.696285  -0.044156  -0.000024  -0.003150  -0.000377   4.960934
    25  H   -0.038332   0.003541  -0.000122   0.000051  -0.000120   0.403960
    26  C   -0.049354  -0.007949   0.000348  -0.002567   0.000140   0.340992
    27  H    0.000417  -0.002567  -0.000063  -0.001998   0.000086  -0.044503
    28  H    0.001446   0.000178  -0.000014   0.000062   0.000024  -0.041006
              25         26         27         28
     1  C   -0.000091   0.331128  -0.042601  -0.046717
     2  H    0.000171  -0.045729  -0.002340   0.004692
     3  H    0.001049  -0.042384   0.004316  -0.002896
     4  C   -0.000105  -0.055684  -0.002245  -0.001441
     5  C   -0.000002  -0.001011  -0.000436   0.000280
     6  H    0.000000  -0.000108  -0.000040  -0.000004
     7  H    0.000000   0.000075   0.000058   0.000005
     8  H   -0.000000   0.000669  -0.000466  -0.000003
     9  C    0.000007  -0.004455   0.000648   0.001236
    10  H   -0.000000  -0.000120   0.000001  -0.000038
    11  C   -0.000002   0.000509  -0.000030   0.000051
    12  H    0.000025  -0.000554  -0.000004   0.000016
    13  H   -0.000000   0.000149  -0.000000  -0.000081
    14  H   -0.000000  -0.000037  -0.000000   0.000025
    15  C   -0.006998   0.003136   0.000050  -0.000091
    16  H    0.000180  -0.000071  -0.000004  -0.000002
    17  H    0.000188  -0.000128   0.000006   0.000009
    18  H    0.002368   0.000144   0.000007  -0.000009
    19  C   -0.038332  -0.049354   0.000417   0.001446
    20  C    0.003541  -0.007949  -0.002567   0.000178
    21  H   -0.000122   0.000348  -0.000063  -0.000014
    22  H    0.000051  -0.002567  -0.001998   0.000062
    23  H   -0.000120   0.000140   0.000086   0.000024
    24  C    0.403960   0.340992  -0.044503  -0.041006
    25  H    0.558056  -0.040061   0.003267  -0.003353
    26  C   -0.040061   4.977839   0.416251   0.413228
    27  H    0.003267   0.416251   0.582598  -0.028540
    28  H   -0.003353   0.413228  -0.028540   0.579538
 Mulliken charges:
               1
     1  C   -0.235696
     2  H    0.118365
     3  H    0.121814
     4  C    0.017883
     5  C   -0.340845
     6  H    0.118112
     7  H    0.118156
     8  H    0.111985
     9  C   -0.153908
    10  H    0.115552
    11  C   -0.353585
    12  H    0.115581
    13  H    0.120163
    14  H    0.120250
    15  C   -0.342746
    16  H    0.115688
    17  H    0.116299
    18  H    0.119226
    19  C    0.027041
    20  C   -0.348771
    21  H    0.119572
    22  H    0.118676
    23  H    0.120971
    24  C   -0.163245
    25  H    0.116321
    26  C   -0.234395
    27  H    0.118132
    28  H    0.123405
 Sum of Mulliken charges =  -0.00000
 Mulliken charges with hydrogens summed into heavy atoms:
               1
     1  C    0.004483
     4  C    0.017883
     5  C    0.007409
     9  C   -0.038356
    11  C    0.002408
    15  C    0.008467
    19  C    0.027041
    20  C    0.010448
    24  C   -0.046924
    26  C    0.007142
 Electronic spatial extent (au):  <R**2>=           2498.6175
 Charge=             -0.0000 electrons
 Dipole moment (field-independent basis, Debye):
    X=              0.3626    Y=              0.1699    Z=              0.0498  Tot=              0.4035
 Quadrupole moment (field-independent basis, Debye-Ang):
   XX=            -63.7582   YY=            -63.7112   ZZ=            -67.3994
   XY=              1.0617   XZ=              1.2177   YZ=             -0.3674
 Traceless Quadrupole moment (field-independent basis, Debye-Ang):
   XX=              1.1981   YY=              1.2451   ZZ=             -2.4431
   XY=              1.0617   XZ=              1.2177   YZ=             -0.3674
 Octapole moment (field-independent basis, Debye-Ang**2):
  XXX=              2.8324  YYY=             -2.8562  ZZZ=              0.8775  XYY=             -0.7382
  XXY=              1.7310  XXZ=             -2.8066  XZZ=              1.5462  YZZ=              1.4376
  YYZ=              0.7861  XYZ=             -0.4940
 Hexadecapole moment (field-independent basis, Debye-Ang**3):
 XXXX=          -2633.5351 YYYY=           -638.9543 ZZZZ=           -166.0441 XXXY=             10.5034
 XXXZ=             13.5605 YYYX=             -7.0822 YYYZ=             -1.6738 ZZZX=              4.0399
 ZZZY=              2.3776 XXYY=           -550.6721 XXZZ=           -483.2678 YYZZ=           -131.1157
 XXYZ=             -4.5756 YYXZ=              2.5312 ZZXY=              7.7339
 N-N= 5.156964643406D+02 E-N=-1.936106294905D+03  KE= 3.887456775402D+02
 No NMR shielding tensors so no spin-rotation constants.
 Leave Link  601 at Fri Sep 17 15:23:39 2021, MaxMem=   524288000 cpu:               0.3 elap:               0.7
 (Enter /opt/gaussian/g16_legacy/l9999.exe)
 1\1\GINC-TRUENO91\FOpt\RMP2-FC\6-31G(d,p)\C10H18\JRAMOS\17-Sep-2021\0\
 \#p opt mp2/6-31g(d,p)\\Conformer number 2297. Energy MM = 23.287 kcal
 /mol\\0,1\C,-0.8596796119,-0.2833713051,0.3567412009\H,-0.9926086418,0
 .740158675,0.7180340648\H,-0.8138565182,-0.9170822687,1.2441022982\C,-
 2.0222101415,-0.658431748,-0.5273688521\C,-2.6022946769,0.4677765074,-
 1.3395541933\H,-3.3846785223,0.1159068875,-2.010797649\H,-3.0275103782
 ,1.235831629,-0.6898279765\H,-1.8320902657,0.9535493064,-1.9429783723\
 C,-2.4990432554,-1.9117705785,-0.6437517708\H,-3.3245536941,-2.0740898
 871,-1.3313481432\C,-2.0138096273,-3.1329832394,0.0764631673\H,-1.1809
 008666,-2.9184396291,0.7419047374\H,-1.6832201325,-3.8928059441,-0.634
 0378095\H,-2.813721755,-3.5797208872,0.669930796\C,3.3698832335,1.4959
 64511,1.4969260811\H,3.1245604221,2.3184427295,2.1725977791\H,4.277856
 3667,1.7852798201,0.9629115917\H,3.5930014372,0.6153511049,2.097324362
 5\C,2.2430388092,1.2379767372,0.5350012576\C,1.8796472249,2.4091475227
 ,-0.3351470697\H,1.6234521183,3.2717269278,0.2836728221\H,1.0369085178
 ,2.2061389379,-0.9909803281\H,2.7300651692,2.7055250267,-0.9532343415\
 C,1.6375417334,0.0364352649,0.4864601452\H,1.9795611538,-0.7236300046,
 1.1846180444\C,0.4868291999,-0.3642163596,-0.3879940513\H,0.4396194892
 ,0.2536660572,-1.2856428394\H,0.6283132124,-1.3923357939,-0.7312249516
 \\Version=EM64L-G16RevA.03\State=1-A\HF=-389.1568792\MP2=-390.573553\R
 MSD=2.410e-09\RMSF=3.844e-06\Dipole=0.0640899,0.0945308,0.0102508\PG=C
 01 [X(C10H18)]\\@


 ... IT CAN BE VERY DIFFICULT, IN THESE COMPLEX TIMES,
 TO UNDERSTAND JUST HOW SCIENTISTS DO WHAT THEY DO.

                     DON MOSER IN THE FEBRUARY 1979 SMITHSONIAN
 Job cpu time:       0 days  1 hours 50 minutes 41.3 seconds.
 Elapsed time:       0 days  1 hours 50 minutes 55.8 seconds.
 File lengths (MBytes):  RWF=     32 Int=      0 D2E=      0 Chk=      7 Scr=      1
 Normal termination of Gaussian 16 at Fri Sep 17 15:23:39 2021.
