 Entering Gaussian System, Link 0=/opt/gaussian/g16_legacy/g16
 Input=01-IsoP_2879_gaussian.com
 Output=01-IsoP_2879_gaussian.log
 Initial command:
 /opt/gaussian/g16_legacy/l1.exe "/scratch-local/jramos/2661379/Gau-1910.inp" -scrdir="/scratch-local/jramos/2661379/"
 Entering Link 1 = /opt/gaussian/g16_legacy/l1.exe PID=      1911.
  
 Copyright (c) 1988,1990,1992,1993,1995,1998,2003,2009,2016,
            Gaussian, Inc.  All Rights Reserved.
  
 This is part of the Gaussian(R) 16 program.  It is based on
 the Gaussian(R) 09 system (copyright 2009, Gaussian, Inc.),
 the Gaussian(R) 03 system (copyright 2003, Gaussian, Inc.),
 the Gaussian(R) 98 system (copyright 1998, Gaussian, Inc.),
 the Gaussian(R) 94 system (copyright 1995, Gaussian, Inc.),
 the Gaussian 92(TM) system (copyright 1992, Gaussian, Inc.),
 the Gaussian 90(TM) system (copyright 1990, Gaussian, Inc.),
 the Gaussian 88(TM) system (copyright 1988, Gaussian, Inc.),
 the Gaussian 86(TM) system (copyright 1986, Carnegie Mellon
 University), and the Gaussian 82(TM) system (copyright 1983,
 Carnegie Mellon University). Gaussian is a federally registered
 trademark of Gaussian, Inc.
  
 This software contains proprietary and confidential information,
 including trade secrets, belonging to Gaussian, Inc.
  
 This software is provided under written license and may be
 used, copied, transmitted, or stored only in accord with that
 written license.
  
 The following legend is applicable only to US Government
 contracts under FAR:
  
                    RESTRICTED RIGHTS LEGEND
  
 Use, reproduction and disclosure by the US Government is
 subject to restrictions as set forth in subparagraphs (a)
 and (c) of the Commercial Computer Software - Restricted
 Rights clause in FAR 52.227-19.
  
 Gaussian, Inc.
 340 Quinnipiac St., Bldg. 40, Wallingford CT 06492
  
  
 ---------------------------------------------------------------
 Warning -- This program may not be used in any manner that
 competes with the business of Gaussian, Inc. or will provide
 assistance to any competitor of Gaussian, Inc.  The licensee
 of this program is prohibited from giving any competitor of
 Gaussian, Inc. access to this program.  By using this program,
 the user acknowledges that Gaussian, Inc. is engaged in the
 business of creating and licensing software in the field of
 computational chemistry and represents and warrants to the
 licensee that it is not a competitor of Gaussian, Inc. and that
 it will not use this program in any manner prohibited above.
 ---------------------------------------------------------------
  

 Cite this work as:
 Gaussian 16, Revision A.03,
 M. J. Frisch, G. W. Trucks, H. B. Schlegel, G. E. Scuseria, 
 M. A. Robb, J. R. Cheeseman, G. Scalmani, V. Barone, 
 G. A. Petersson, H. Nakatsuji, X. Li, M. Caricato, A. V. Marenich, 
 J. Bloino, B. G. Janesko, R. Gomperts, B. Mennucci, H. P. Hratchian, 
 J. V. Ortiz, A. F. Izmaylov, J. L. Sonnenberg, D. Williams-Young, 
 F. Ding, F. Lipparini, F. Egidi, J. Goings, B. Peng, A. Petrone, 
 T. Henderson, D. Ranasinghe, V. G. Zakrzewski, J. Gao, N. Rega, 
 G. Zheng, W. Liang, M. Hada, M. Ehara, K. Toyota, R. Fukuda, 
 J. Hasegawa, M. Ishida, T. Nakajima, Y. Honda, O. Kitao, H. Nakai, 
 T. Vreven, K. Throssell, J. A. Montgomery, Jr., J. E. Peralta, 
 F. Ogliaro, M. J. Bearpark, J. J. Heyd, E. N. Brothers, K. N. Kudin, 
 V. N. Staroverov, T. A. Keith, R. Kobayashi, J. Normand, 
 K. Raghavachari, A. P. Rendell, J. C. Burant, S. S. Iyengar, 
 J. Tomasi, M. Cossi, J. M. Millam, M. Klene, C. Adamo, R. Cammi, 
 J. W. Ochterski, R. L. Martin, K. Morokuma, O. Farkas, 
 J. B. Foresman, and D. J. Fox, Gaussian, Inc., Wallingford CT, 2016.
 
 ******************************************
 Gaussian 16:  EM64L-G16RevA.03 25-Dec-2016
                17-Sep-2021 
 ******************************************
 %chk=01-IsoP_2879_gaussian.chk
 %nproc=1
 Will use up to    1 processors via shared memory.
 %mem=4000Mb
 ---------------------
 #p opt mp2/6-31g(d,p)
 ---------------------
 1/18=20,19=15,38=1/1,3;
 2/9=110,12=2,17=6,18=5,40=1/2;
 3/5=1,6=6,7=101,11=9,25=1,30=1,71=1/1,2,3;
 4//1;
 5/5=2,38=5/2;
 8/6=4,10=2/1;
 9/15=2,16=-3/6;
 10/5=1/2;
 6/7=2,8=2,9=2,10=2/1;
 7/12=2/1,2,3,16;
 1/18=20,19=15/3(2);
 2/9=110/2;
 99//99;
 2/9=110/2;
 3/5=1,6=6,7=101,11=9,25=1,30=1,71=1/1,2,3;
 4/5=5,16=3,69=1/1;
 5/5=2,38=5/2;
 8/6=4,10=2/1;
 9/15=2,16=-3/6;
 10/5=1/2;
 7/12=2/1,2,3,16;
 1/18=20,19=15/3(-8);
 2/9=110/2;
 6/7=2,8=2,9=2,10=2/1;
 99//99;
 Leave Link    1 at Fri Sep 17 14:53:15 2021, MaxMem=   524288000 cpu:               0.0 elap:               0.2
 (Enter /opt/gaussian/g16_legacy/l101.exe)
 --------------------------------------------------
 Conformer number 2879. Energy MM = 23.287 kcal/mol
 --------------------------------------------------
 Symbolic Z-matrix:
 Charge =  0 Multiplicity = 1
 C                     0.7045    0.1761    0.6496 
 H                     0.8305    1.2305    0.9233 
 H                     0.0988   -0.2542    1.4585 
 C                     2.0444   -0.5294    0.61 
 C                     1.9958   -2.0061    0.9096 
 H                     1.3676   -2.5249    0.1788 
 H                     1.5821   -2.1771    1.9088 
 H                     2.9882   -2.4683    0.879 
 C                     3.2197    0.0795    0.3565 
 H                     4.1307   -0.5181    0.3751 
 C                     3.4461    1.5193    0.0195 
 H                     2.5226    2.077    -0.1511 
 H                     4.043     1.5899   -0.8956 
 H                     4.0013    2.0069    0.8265 
 C                    -3.8181    1.1414   -0.5053 
 H                    -3.5681    2.2002   -0.6314 
 H                    -4.3611    1.0385    0.4399 
 H                    -4.4873    0.8585   -1.3244 
 C                    -2.5958    0.2608   -0.5041 
 C                    -2.8897   -1.2052   -0.343 
 H                    -1.9936   -1.815    -0.2071 
 H                    -3.4242   -1.5806   -1.2215 
 H                    -3.5192   -1.3675    0.5387 
 C                    -1.3648    0.7944   -0.6284 
 H                    -1.2749    1.877    -0.7207 
 C                    -0.048     0.0665   -0.6804 
 H                     0.5514    0.5127   -1.4845 
 H                    -0.1819   -0.9826   -0.9625 
 
 ITRead=  0  0  0  0  0  0  0  0  0  0  0  0  0  0  0  0  0  0  0  0
 ITRead=  0  0  0  0  0  0  0  0
 MicOpt= -1 -1 -1 -1 -1 -1 -1 -1 -1 -1 -1 -1 -1 -1 -1 -1 -1 -1 -1 -1
 MicOpt= -1 -1 -1 -1 -1 -1 -1 -1
 NAtoms=     28 NQM=       28 NQMF=       0 NMMI=      0 NMMIF=      0
                NMic=       0 NMicF=      0.
                    Isotopes and Nuclear Properties:
 (Nuclear quadrupole moments (NQMom) in fm**2, nuclear magnetic moments (NMagM)
  in nuclear magnetons)

  Atom         1           2           3           4           5           6           7           8           9          10
 IAtWgt=          12           1           1          12          12           1           1           1          12           1
 AtmWgt=  12.0000000   1.0078250   1.0078250  12.0000000  12.0000000   1.0078250   1.0078250   1.0078250  12.0000000   1.0078250
 NucSpn=           0           1           1           0           0           1           1           1           0           1
 AtZEff=  -0.0000000  -0.0000000  -0.0000000  -0.0000000  -0.0000000  -0.0000000  -0.0000000  -0.0000000  -0.0000000  -0.0000000
 NQMom=    0.0000000   0.0000000   0.0000000   0.0000000   0.0000000   0.0000000   0.0000000   0.0000000   0.0000000   0.0000000
 NMagM=    0.0000000   2.7928460   2.7928460   0.0000000   0.0000000   2.7928460   2.7928460   2.7928460   0.0000000   2.7928460
 AtZNuc=   6.0000000   1.0000000   1.0000000   6.0000000   6.0000000   1.0000000   1.0000000   1.0000000   6.0000000   1.0000000

  Atom        11          12          13          14          15          16          17          18          19          20
 IAtWgt=          12           1           1           1          12           1           1           1          12          12
 AtmWgt=  12.0000000   1.0078250   1.0078250   1.0078250  12.0000000   1.0078250   1.0078250   1.0078250  12.0000000  12.0000000
 NucSpn=           0           1           1           1           0           1           1           1           0           0
 AtZEff=  -0.0000000  -0.0000000  -0.0000000  -0.0000000  -0.0000000  -0.0000000  -0.0000000  -0.0000000  -0.0000000  -0.0000000
 NQMom=    0.0000000   0.0000000   0.0000000   0.0000000   0.0000000   0.0000000   0.0000000   0.0000000   0.0000000   0.0000000
 NMagM=    0.0000000   2.7928460   2.7928460   2.7928460   0.0000000   2.7928460   2.7928460   2.7928460   0.0000000   0.0000000
 AtZNuc=   6.0000000   1.0000000   1.0000000   1.0000000   6.0000000   1.0000000   1.0000000   1.0000000   6.0000000   6.0000000

  Atom        21          22          23          24          25          26          27          28
 IAtWgt=           1           1           1          12           1          12           1           1
 AtmWgt=   1.0078250   1.0078250   1.0078250  12.0000000   1.0078250  12.0000000   1.0078250   1.0078250
 NucSpn=           1           1           1           0           1           0           1           1
 AtZEff=  -0.0000000  -0.0000000  -0.0000000  -0.0000000  -0.0000000  -0.0000000  -0.0000000  -0.0000000
 NQMom=    0.0000000   0.0000000   0.0000000   0.0000000   0.0000000   0.0000000   0.0000000   0.0000000
 NMagM=    2.7928460   2.7928460   2.7928460   0.0000000   2.7928460   0.0000000   2.7928460   2.7928460
 AtZNuc=   1.0000000   1.0000000   1.0000000   6.0000000   1.0000000   6.0000000   1.0000000   1.0000000
 Leave Link  101 at Fri Sep 17 14:53:15 2021, MaxMem=   524288000 cpu:               0.3 elap:               0.3
 (Enter /opt/gaussian/g16_legacy/l103.exe)

 GradGradGradGradGradGradGradGradGradGradGradGradGradGradGradGradGradGrad
 Berny optimization.
 Initialization pass.
                           ----------------------------
                           !    Initial Parameters    !
                           ! (Angstroms and Degrees)  !
 --------------------------                            --------------------------
 ! Name  Definition              Value          Derivative Info.                !
 --------------------------------------------------------------------------------
 ! R1    R(1,2)                  1.0966         estimate D2E/DX2                !
 ! R2    R(1,3)                  1.0983         estimate D2E/DX2                !
 ! R3    R(1,4)                  1.5148         estimate D2E/DX2                !
 ! R4    R(1,26)                 1.532          estimate D2E/DX2                !
 ! R5    R(4,5)                  1.5076         estimate D2E/DX2                !
 ! R6    R(4,9)                  1.3477         estimate D2E/DX2                !
 ! R7    R(5,6)                  1.0945         estimate D2E/DX2                !
 ! R8    R(5,7)                  1.0949         estimate D2E/DX2                !
 ! R9    R(5,8)                  1.0952         estimate D2E/DX2                !
 ! R10   R(9,10)                 1.0897         estimate D2E/DX2                !
 ! R11   R(9,11)                 1.4959         estimate D2E/DX2                !
 ! R12   R(11,12)                1.0922         estimate D2E/DX2                !
 ! R13   R(11,13)                1.0948         estimate D2E/DX2                !
 ! R14   R(11,14)                1.0942         estimate D2E/DX2                !
 ! R15   R(15,16)                1.0952         estimate D2E/DX2                !
 ! R16   R(15,17)                1.0949         estimate D2E/DX2                !
 ! R17   R(15,18)                1.0949         estimate D2E/DX2                !
 ! R18   R(15,19)                1.5065         estimate D2E/DX2                !
 ! R19   R(19,20)                1.5038         estimate D2E/DX2                !
 ! R20   R(19,24)                1.3474         estimate D2E/DX2                !
 ! R21   R(20,21)                1.0924         estimate D2E/DX2                !
 ! R22   R(20,22)                1.0947         estimate D2E/DX2                !
 ! R23   R(20,23)                1.0954         estimate D2E/DX2                !
 ! R24   R(24,25)                1.0902         estimate D2E/DX2                !
 ! R25   R(24,26)                1.5055         estimate D2E/DX2                !
 ! R26   R(26,27)                1.0977         estimate D2E/DX2                !
 ! R27   R(26,28)                1.0946         estimate D2E/DX2                !
 ! A1    A(2,1,3)              104.8472         estimate D2E/DX2                !
 ! A2    A(2,1,4)              110.6527         estimate D2E/DX2                !
 ! A3    A(2,1,26)             109.9922         estimate D2E/DX2                !
 ! A4    A(3,1,4)              108.9404         estimate D2E/DX2                !
 ! A5    A(3,1,26)             109.9046         estimate D2E/DX2                !
 ! A6    A(4,1,26)             112.2376         estimate D2E/DX2                !
 ! A7    A(1,4,5)              114.9919         estimate D2E/DX2                !
 ! A8    A(1,4,9)              124.4628         estimate D2E/DX2                !
 ! A9    A(5,4,9)              120.5335         estimate D2E/DX2                !
 ! A10   A(4,5,6)              110.4947         estimate D2E/DX2                !
 ! A11   A(4,5,7)              110.2749         estimate D2E/DX2                !
 ! A12   A(4,5,8)              112.2485         estimate D2E/DX2                !
 ! A13   A(6,5,7)              108.5696         estimate D2E/DX2                !
 ! A14   A(6,5,8)              107.5419         estimate D2E/DX2                !
 ! A15   A(7,5,8)              107.576          estimate D2E/DX2                !
 ! A16   A(4,9,10)             118.5604         estimate D2E/DX2                !
 ! A17   A(4,9,11)             127.5315         estimate D2E/DX2                !
 ! A18   A(10,9,11)            113.9009         estimate D2E/DX2                !
 ! A19   A(9,11,12)            113.4947         estimate D2E/DX2                !
 ! A20   A(9,11,13)            109.4428         estimate D2E/DX2                !
 ! A21   A(9,11,14)            109.8492         estimate D2E/DX2                !
 ! A22   A(12,11,13)           107.3069         estimate D2E/DX2                !
 ! A23   A(12,11,14)           108.4621         estimate D2E/DX2                !
 ! A24   A(13,11,14)           108.1243         estimate D2E/DX2                !
 ! A25   A(16,15,17)           107.6654         estimate D2E/DX2                !
 ! A26   A(16,15,18)           107.6485         estimate D2E/DX2                !
 ! A27   A(16,15,19)           112.3336         estimate D2E/DX2                !
 ! A28   A(17,15,18)           108.5675         estimate D2E/DX2                !
 ! A29   A(17,15,19)           110.289          estimate D2E/DX2                !
 ! A30   A(18,15,19)           110.2104         estimate D2E/DX2                !
 ! A31   A(15,19,20)           114.2901         estimate D2E/DX2                !
 ! A32   A(15,19,24)           120.6437         estimate D2E/DX2                !
 ! A33   A(20,19,24)           125.0637         estimate D2E/DX2                !
 ! A34   A(19,20,21)           113.4029         estimate D2E/DX2                !
 ! A35   A(19,20,22)           110.1056         estimate D2E/DX2                !
 ! A36   A(19,20,23)           110.0575         estimate D2E/DX2                !
 ! A37   A(21,20,22)           107.9949         estimate D2E/DX2                !
 ! A38   A(21,20,23)           106.7714         estimate D2E/DX2                !
 ! A39   A(22,20,23)           108.3323         estimate D2E/DX2                !
 ! A40   A(19,24,25)           118.4496         estimate D2E/DX2                !
 ! A41   A(19,24,26)           127.6478         estimate D2E/DX2                !
 ! A42   A(25,24,26)           113.8949         estimate D2E/DX2                !
 ! A43   A(1,26,24)            111.4099         estimate D2E/DX2                !
 ! A44   A(1,26,27)            109.794          estimate D2E/DX2                !
 ! A45   A(1,26,28)            110.6332         estimate D2E/DX2                !
 ! A46   A(24,26,27)           107.8411         estimate D2E/DX2                !
 ! A47   A(24,26,28)           111.4266         estimate D2E/DX2                !
 ! A48   A(27,26,28)           105.5216         estimate D2E/DX2                !
 ! D1    D(2,1,4,5)            151.7232         estimate D2E/DX2                !
 ! D2    D(2,1,4,9)            -27.0278         estimate D2E/DX2                !
 ! D3    D(3,1,4,5)             36.9603         estimate D2E/DX2                !
 ! D4    D(3,1,4,9)           -141.7907         estimate D2E/DX2                !
 ! D5    D(26,1,4,5)           -84.9893         estimate D2E/DX2                !
 ! D6    D(26,1,4,9)            96.2598         estimate D2E/DX2                !
 ! D7    D(2,1,26,24)          -55.3194         estimate D2E/DX2                !
 ! D8    D(2,1,26,27)           64.0783         estimate D2E/DX2                !
 ! D9    D(2,1,26,28)         -179.8551         estimate D2E/DX2                !
 ! D10   D(3,1,26,24)           59.6245         estimate D2E/DX2                !
 ! D11   D(3,1,26,27)          179.0222         estimate D2E/DX2                !
 ! D12   D(3,1,26,28)          -64.9112         estimate D2E/DX2                !
 ! D13   D(4,1,26,24)         -178.977          estimate D2E/DX2                !
 ! D14   D(4,1,26,27)          -59.5793         estimate D2E/DX2                !
 ! D15   D(4,1,26,28)           56.4873         estimate D2E/DX2                !
 ! D16   D(1,4,5,6)             60.5514         estimate D2E/DX2                !
 ! D17   D(1,4,5,7)            -59.4824         estimate D2E/DX2                !
 ! D18   D(1,4,5,8)           -179.4116         estimate D2E/DX2                !
 ! D19   D(9,4,5,6)           -120.6442         estimate D2E/DX2                !
 ! D20   D(9,4,5,7)            119.322          estimate D2E/DX2                !
 ! D21   D(9,4,5,8)             -0.6072         estimate D2E/DX2                !
 ! D22   D(1,4,9,10)           178.5658         estimate D2E/DX2                !
 ! D23   D(1,4,9,11)            -2.4796         estimate D2E/DX2                !
 ! D24   D(5,4,9,10)            -0.1198         estimate D2E/DX2                !
 ! D25   D(5,4,9,11)           178.8348         estimate D2E/DX2                !
 ! D26   D(4,9,11,12)           -8.0349         estimate D2E/DX2                !
 ! D27   D(4,9,11,13)         -127.8661         estimate D2E/DX2                !
 ! D28   D(4,9,11,14)          113.5688         estimate D2E/DX2                !
 ! D29   D(10,9,11,12)         170.9608         estimate D2E/DX2                !
 ! D30   D(10,9,11,13)          51.1296         estimate D2E/DX2                !
 ! D31   D(10,9,11,14)         -67.4356         estimate D2E/DX2                !
 ! D32   D(16,15,19,20)       -179.5973         estimate D2E/DX2                !
 ! D33   D(16,15,19,24)          0.9491         estimate D2E/DX2                !
 ! D34   D(17,15,19,20)         60.294          estimate D2E/DX2                !
 ! D35   D(17,15,19,24)       -119.1596         estimate D2E/DX2                !
 ! D36   D(18,15,19,20)        -59.5641         estimate D2E/DX2                !
 ! D37   D(18,15,19,24)        120.9823         estimate D2E/DX2                !
 ! D38   D(15,19,20,21)       -172.1163         estimate D2E/DX2                !
 ! D39   D(15,19,20,22)         66.7592         estimate D2E/DX2                !
 ! D40   D(15,19,20,23)        -52.5955         estimate D2E/DX2                !
 ! D41   D(24,19,20,21)          7.3094         estimate D2E/DX2                !
 ! D42   D(24,19,20,22)       -113.8151         estimate D2E/DX2                !
 ! D43   D(24,19,20,23)        126.8302         estimate D2E/DX2                !
 ! D44   D(15,19,24,25)          0.5342         estimate D2E/DX2                !
 ! D45   D(15,19,24,26)       -178.3853         estimate D2E/DX2                !
 ! D46   D(20,19,24,25)       -178.8573         estimate D2E/DX2                !
 ! D47   D(20,19,24,26)          2.2232         estimate D2E/DX2                !
 ! D48   D(19,24,26,1)        -103.6544         estimate D2E/DX2                !
 ! D49   D(19,24,26,27)        135.794          estimate D2E/DX2                !
 ! D50   D(19,24,26,28)         20.4344         estimate D2E/DX2                !
 ! D51   D(25,24,26,1)          77.3846         estimate D2E/DX2                !
 ! D52   D(25,24,26,27)        -43.167          estimate D2E/DX2                !
 ! D53   D(25,24,26,28)       -158.5266         estimate D2E/DX2                !
 --------------------------------------------------------------------------------
 Trust Radius=3.00D-01 FncErr=1.00D-07 GrdErr=1.00D-07 EigMax=2.50D+02 EigMin=1.00D-04
 Number of steps in this run=    138 maximum allowed number of steps=    168.
 GradGradGradGradGradGradGradGradGradGradGradGradGradGradGradGradGradGrad

 Leave Link  103 at Fri Sep 17 14:53:16 2021, MaxMem=   524288000 cpu:               0.1 elap:               0.1
 (Enter /opt/gaussian/g16_legacy/l202.exe)
                          Input orientation:                          
 ---------------------------------------------------------------------
 Center     Atomic      Atomic             Coordinates (Angstroms)
 Number     Number       Type             X           Y           Z
 ---------------------------------------------------------------------
      1          6           0        0.704500    0.176100    0.649600
      2          1           0        0.830500    1.230500    0.923300
      3          1           0        0.098800   -0.254200    1.458500
      4          6           0        2.044400   -0.529400    0.610000
      5          6           0        1.995800   -2.006100    0.909600
      6          1           0        1.367600   -2.524900    0.178800
      7          1           0        1.582100   -2.177100    1.908800
      8          1           0        2.988200   -2.468300    0.879000
      9          6           0        3.219700    0.079500    0.356500
     10          1           0        4.130700   -0.518100    0.375100
     11          6           0        3.446100    1.519300    0.019500
     12          1           0        2.522600    2.077000   -0.151100
     13          1           0        4.043000    1.589900   -0.895600
     14          1           0        4.001300    2.006900    0.826500
     15          6           0       -3.818100    1.141400   -0.505300
     16          1           0       -3.568100    2.200200   -0.631400
     17          1           0       -4.361100    1.038500    0.439900
     18          1           0       -4.487300    0.858500   -1.324400
     19          6           0       -2.595800    0.260800   -0.504100
     20          6           0       -2.889700   -1.205200   -0.343000
     21          1           0       -1.993600   -1.815000   -0.207100
     22          1           0       -3.424200   -1.580600   -1.221500
     23          1           0       -3.519200   -1.367500    0.538700
     24          6           0       -1.364800    0.794400   -0.628400
     25          1           0       -1.274900    1.877000   -0.720700
     26          6           0       -0.048000    0.066500   -0.680400
     27          1           0        0.551400    0.512700   -1.484500
     28          1           0       -0.181900   -0.982600   -0.962500
 ---------------------------------------------------------------------
                    Distance matrix (angstroms):
                    1          2          3          4          5
     1  C    0.000000
     2  H    1.096607   0.000000
     3  H    1.098340   1.739586   0.000000
     4  C    1.514804   2.160777   2.140338   0.000000
     5  C    2.548932   3.440013   2.639897   1.507569   0.000000
     6  H    2.820772   3.865978   2.898890   2.150817   1.094467
     7  H    2.809505   3.625996   2.469918   2.148376   1.094892
     8  H    3.501537   4.282377   3.686013   2.173120   1.095182
     9  C    2.534062   2.711889   3.326526   1.347721   2.480641
    10  H    3.506581   3.774844   4.183254   2.099513   2.656620
    11  C    3.117304   2.782377   4.052214   2.551593   3.914600
    12  H    2.749551   2.175799   3.728285   2.757040   4.251389
    13  H    3.941073   3.709140   4.949667   3.279126   4.514531
    14  H    3.775184   3.265906   4.554284   3.210786   4.486993
    15  C    4.766499   4.863982   4.598512   6.197126   6.760927
    16  H    4.898270   4.764986   4.882409   6.363328   7.143152
    17  H    5.142763   5.217590   4.753875   6.596793   7.064020
    18  H    5.596171   5.785286   5.478590   6.952070   7.431506
    19  C    3.497167   3.836316   3.373113   4.837054   5.312266
    20  C    3.976370   4.623423   3.616758   5.070528   5.106717
    21  H    3.460948   4.304465   3.096523   4.315769   4.147150
    22  H    4.861396   5.532172   4.620959   5.862167   5.839438
    23  H    4.498293   5.081084   3.895561   5.626823   5.564225
    24  C    2.509498   2.723472   2.756236   3.861182   4.637012
    25  H    2.947678   2.748346   3.343348   4.310368   5.332337
    26  C    1.532047   2.167605   2.167785   2.529499   3.316759
    27  H    2.165900   2.527970   3.074773   2.775239   3.763291
    28  H    2.174203   3.078800   2.543737   2.763070   3.048719
                    6          7          8          9         10
     6  H    0.000000
     7  H    1.777604   0.000000
     8  H    1.766303   1.767032   0.000000
     9  C    3.200742   3.191177   2.611108   0.000000
    10  H    3.420600   3.405859   2.315708   1.089676   0.000000
    11  C    4.549845   4.550530   4.104798   1.495945   2.178561
    12  H    4.756085   4.819242   4.683764   2.175687   3.097970
    13  H    5.024309   5.301979   4.553108   2.127648   2.462932
    14  H    5.281392   4.952753   4.588741   2.132292   2.568293
    15  C    6.387584   6.782513   7.827640   7.169446   8.167770
    16  H    6.880707   7.220660   8.189095   7.179662   8.226404
    17  H    6.751592   6.915156   8.154917   7.641673   8.633532
    18  H    6.927255   7.517052   8.473823   7.926545   8.891190
    19  C    4.892343   5.405580   6.367261   5.881628   6.828285
    20  C    4.487593   5.100215   6.135015   6.282079   7.090401
    21  H    3.456956   4.170585   5.140500   5.575417   6.287126
    22  H    5.080737   5.934444   6.805805   7.027619   7.794521
    23  H    5.034870   5.343771   6.608617   6.894910   7.698650
    24  C    4.374395   4.894018   5.645004   4.743285   5.738483
    25  H    5.212354   5.613595   6.294020   4.959112   6.013135
    26  C    3.075305   3.794064   4.251523   3.428293   4.349410
    27  H    3.558056   4.451051   4.517797   3.270591   4.163178
    28  H    2.466213   3.575317   3.955750   3.799829   4.539103
                   11         12         13         14         15
    11  C    0.000000
    12  H    1.092239   0.000000
    13  H    1.094843   1.761580   0.000000
    14  H    1.094189   1.774026   1.772359   0.000000
    15  C    7.292930   6.419134   7.883551   7.979085   0.000000
    16  H    7.077167   6.110850   7.640099   7.710944   1.095198
    17  H    7.833280   6.986636   8.527397   8.427158   1.094916
    18  H    8.073510   7.211108   8.572330   8.831847   1.094891
    19  C    6.193750   5.442537   6.781847   6.952776   1.506478
    20  C    6.906277   6.332666   7.495351   7.692282   2.528794
    21  H    6.384296   5.962119   6.964762   7.184294   3.486836
    22  H    7.638749   7.063160   8.118950   8.497206   2.842074
    23  H    7.557684   6.988830   8.245623   8.247868   2.733835
    24  C    4.908158   4.121257   5.472524   5.690511   2.480775
    25  H    4.792044   3.845185   5.328515   5.499908   2.656195
    26  C    3.848275   3.306093   4.370737   4.736320   3.924248
    27  H    3.413876   2.847915   3.701140   4.413067   4.521795
    28  H    4.515109   4.163393   4.946919   5.443969   4.235842
                   16         17         18         19         20
    16  H    0.000000
    17  H    1.768072   0.000000
    18  H    1.767862   1.777943   0.000000
    19  C    2.173211   2.147612   2.146604   0.000000
    20  C    3.484272   2.795021   2.788248   1.503824   0.000000
    21  H    4.333695   3.763792   3.822892   2.181696   1.092392
    22  H    3.829279   3.240018   2.662701   2.142817   1.094704
    23  H    3.754998   2.550959   3.059973   2.142769   1.095448
    24  C    2.613583   3.190402   3.199770   1.347420   2.530844
    25  H    2.317585   3.402162   3.423640   2.098522   3.500028
    26  C    4.116574   4.560996   4.555149   2.561273   3.131504
    27  H    4.532738   5.302116   5.053089   3.305980   4.011904
    28  H    4.658991   4.849462   4.696498   2.753741   2.786667
                   21         22         23         24         25
    21  H    0.000000
    22  H    1.769341   0.000000
    23  H    1.756112   1.775596   0.000000
    24  C    2.716956   3.198987   3.267625   0.000000
    25  H    3.796206   4.101864   4.141226   1.090240   0.000000
    26  C    2.747620   3.795320   3.948644   1.505491   2.187423
    27  H    3.677902   4.500719   4.919174   2.117566   2.404179
    28  H    2.132083   3.307143   3.679582   2.160695   3.070900
                   26         27         28
    26  C    0.000000
    27  H    1.097703   0.000000
    28  H    1.094587   1.745318   0.000000
 Stoichiometry    C10H18
 Framework group  C1[X(C10H18)]
 Deg. of freedom    78
 Full point group                 C1      NOp   1
 Largest Abelian subgroup         C1      NOp   1
 Largest concise Abelian subgroup C1      NOp   1
                         Standard orientation:                         
 ---------------------------------------------------------------------
 Center     Atomic      Atomic             Coordinates (Angstroms)
 Number     Number       Type             X           Y           Z
 ---------------------------------------------------------------------
      1          6           0       -0.745835   -0.045480    0.580320
      2          1           0       -0.871500   -1.012110    1.082696
      3          1           0       -0.286598    0.606576    1.335485
      4          6           0       -2.090209    0.530272    0.185610
      5          6           0       -2.144003    2.035452    0.119994
      6          1           0       -1.432581    2.412361   -0.621408
      7          1           0       -1.893345    2.466904    1.094575
      8          1           0       -3.137221    2.403120   -0.158863
      9          6           0       -3.189397   -0.206000   -0.071377
     10          1           0       -4.114842    0.310459   -0.324782
     11          6           0       -3.306960   -1.697313   -0.075172
     12          1           0       -2.347656   -2.209979    0.024313
     13          1           0       -3.755145   -2.025149   -1.018748
     14          1           0       -3.959018   -2.020671    0.741841
     15          6           0        3.933078   -0.920040    0.330452
     16          1           0        3.745693   -1.994205    0.433000
     17          1           0        4.322231   -0.557782    1.287620
     18          1           0        4.707386   -0.789514   -0.432566
     19          6           0        2.691988   -0.156338   -0.051555
     20          6           0        2.901879    1.323913   -0.213701
     21          1           0        1.972908    1.880913   -0.355419
     22          1           0        3.548611    1.520178   -1.074860
     23          1           0        3.383824    1.735148    0.679954
     24          6           0        1.515329   -0.793313   -0.210544
     25          1           0        1.481864   -1.870800   -0.047673
     26          6           0        0.194794   -0.197073   -0.619432
     27          1           0       -0.258339   -0.862944   -1.365245
     28          1           0        0.329739    0.763024   -1.127492
 ---------------------------------------------------------------------
 Rotational constants (GHZ):           2.4778589           0.5324317           0.4581601
 Leave Link  202 at Fri Sep 17 14:53:16 2021, MaxMem=   524288000 cpu:               0.0 elap:               0.1
 (Enter /opt/gaussian/g16_legacy/l301.exe)
 Standard basis: 6-31G(d,p) (6D, 7F)
 Ernie: Thresh=  0.10000D-02 Tol=  0.10000D-05 Strict=F.
 There are   240 symmetry adapted cartesian basis functions of A   symmetry.
 There are   240 symmetry adapted basis functions of A   symmetry.
   240 basis functions,   406 primitive gaussians,   240 cartesian basis functions
    39 alpha electrons       39 beta electrons
       nuclear repulsion energy       513.2769735853 Hartrees.
 IExCor=    0 DFT=F Ex=HF Corr=None ExCW=0 ScaHFX=  1.000000
 ScaDFX=  1.000000  1.000000  1.000000  1.000000 ScalE2=  1.000000  1.000000
 IRadAn=      5 IRanWt=     -1 IRanGd=            0 ICorTp=0 IEmpDi=  4
 NAtoms=   28 NActive=   28 NUniq=   28 SFac= 1.00D+00 NAtFMM=   60 NAOKFM=F Big=F
 Integral buffers will be    131072 words long.
 Raffenetti 1 integral format.
 Two-electron integral symmetry is turned on.
 Leave Link  301 at Fri Sep 17 14:53:16 2021, MaxMem=   524288000 cpu:               0.1 elap:               0.2
 (Enter /opt/gaussian/g16_legacy/l302.exe)
 NPDir=0 NMtPBC=     1 NCelOv=     1 NCel=       1 NClECP=     1 NCelD=      1
         NCelK=      1 NCelE2=     1 NClLst=     1 CellRange=     0.0.
 One-electron integrals computed using PRISM.
 One-electron integral symmetry used in STVInt
 NBasis=   240 RedAO= T EigKep=  2.09D-03  NBF=   240
 NBsUse=   240 1.00D-06 EigRej= -1.00D+00 NBFU=   240
 Leave Link  302 at Fri Sep 17 14:53:17 2021, MaxMem=   524288000 cpu:               0.4 elap:               0.6
 (Enter /opt/gaussian/g16_legacy/l303.exe)
 DipDrv:  MaxL=1.
 Leave Link  303 at Fri Sep 17 14:53:17 2021, MaxMem=   524288000 cpu:               0.1 elap:               0.1
 (Enter /opt/gaussian/g16_legacy/l401.exe)
 ExpMin= 1.61D-01 ExpMax= 3.05D+03 ExpMxC= 4.57D+02 IAcc=3 IRadAn=         5 AccDes= 0.00D+00
 Harris functional with IExCor=  205 and IRadAn=       5 diagonalized for initial guess.
 HarFok:  IExCor=  205 AccDes= 0.00D+00 IRadAn=         5 IDoV= 1 UseB2=F ITyADJ=14
 ICtDFT=  3500011 ScaDFX=  1.000000  1.000000  1.000000  1.000000
 FoFCou: FMM=F IPFlag=           0 FMFlag=      100000 FMFlg1=           0
         NFxFlg=           0 DoJE=T BraDBF=F KetDBF=T FulRan=T
         wScrn=  0.000000 ICntrl=       500 IOpCl=  0 I1Cent=   200000004 NGrid=           0
         NMat0=    1 NMatS0=      1 NMatT0=    0 NMatD0=    1 NMtDS0=    0 NMtDT0=    0
 Petite list used in FoFCou.
 Harris En= -390.110063577873    
 JPrj=0 DoOrth=F DoCkMO=F.
 Leave Link  401 at Fri Sep 17 14:53:29 2021, MaxMem=   524288000 cpu:              11.7 elap:              11.9
 (Enter /opt/gaussian/g16_legacy/l502.exe)
 Keep R1 ints in memory in canonical form, NReq=425198025.
 FoFCou: FMM=F IPFlag=           0 FMFlag=           0 FMFlg1=           0
         NFxFlg=           0 DoJE=F BraDBF=F KetDBF=F FulRan=T
         wScrn=  0.000000 ICntrl=       600 IOpCl=  0 I1Cent=           0 NGrid=           0
         NMat0=    1 NMatS0=  28920 NMatT0=    0 NMatD0=    1 NMtDS0=    0 NMtDT0=    0
 Symmetry not used in FoFCou.
 Two-electron integral symmetry not used.
 Closed shell SCF:
 Using DIIS extrapolation, IDIIS=  1040.
 NGot=   524288000 LenX=   105970886 LenY=   105912845
 Requested convergence on RMS density matrix=1.00D-08 within 128 cycles.
 Requested convergence on MAX density matrix=1.00D-06.
 Requested convergence on             energy=1.00D-06.
 No special actions if energy rises.

 Cycle   1  Pass 1  IDiag  1:
 E= -388.532781614899    
 DIIS: error= 5.01D-02 at cycle   1 NSaved=   1.
 NSaved= 1 IEnMin= 1 EnMin= -388.532781614899     IErMin= 1 ErrMin= 5.01D-02
 ErrMax= 5.01D-02  0.00D+00 EMaxC= 1.00D-01 BMatC= 8.07D-01 BMatP= 8.07D-01
 IDIUse=3 WtCom= 4.99D-01 WtEn= 5.01D-01
 Coeff-Com:  0.100D+01
 Coeff-En:   0.100D+01
 Coeff:      0.100D+01
 Gap=     0.508 Goal=   None    Shift=    0.000
 GapD=    0.508 DampG=2.000 DampE=0.500 DampFc=1.0000 IDamp=-1.
 RMSDP=3.99D-03 MaxDP=1.15D-01              OVMax= 1.39D-01

 Cycle   2  Pass 1  IDiag  1:
 E= -389.074237005787     Delta-E=       -0.541455390887 Rises=F Damp=F
 DIIS: error= 1.46D-02 at cycle   2 NSaved=   2.
 NSaved= 2 IEnMin= 2 EnMin= -389.074237005787     IErMin= 2 ErrMin= 1.46D-02
 ErrMax= 1.46D-02  0.00D+00 EMaxC= 1.00D-01 BMatC= 8.63D-02 BMatP= 8.07D-01
 IDIUse=3 WtCom= 8.54D-01 WtEn= 1.46D-01
 Coeff-Com:  0.183D+00 0.817D+00
 Coeff-En:   0.000D+00 0.100D+01
 Coeff:      0.156D+00 0.844D+00
 Gap=     0.552 Goal=   None    Shift=    0.000
 RMSDP=1.62D-03 MaxDP=3.04D-02 DE=-5.41D-01 OVMax= 4.55D-02

 Cycle   3  Pass 1  IDiag  1:
 E= -389.151655411440     Delta-E=       -0.077418405653 Rises=F Damp=F
 DIIS: error= 2.66D-03 at cycle   3 NSaved=   3.
 NSaved= 3 IEnMin= 3 EnMin= -389.151655411440     IErMin= 3 ErrMin= 2.66D-03
 ErrMax= 2.66D-03  0.00D+00 EMaxC= 1.00D-01 BMatC= 3.01D-03 BMatP= 8.63D-02
 IDIUse=3 WtCom= 9.73D-01 WtEn= 2.66D-02
 Coeff-Com: -0.245D-01 0.102D+00 0.922D+00
 Coeff-En:   0.000D+00 0.000D+00 0.100D+01
 Coeff:     -0.239D-01 0.997D-01 0.924D+00
 Gap=     0.499 Goal=   None    Shift=    0.000
 RMSDP=2.54D-04 MaxDP=6.75D-03 DE=-7.74D-02 OVMax= 9.70D-03

 Cycle   4  Pass 1  IDiag  1:
 E= -389.155147711308     Delta-E=       -0.003492299868 Rises=F Damp=F
 DIIS: error= 4.95D-04 at cycle   4 NSaved=   4.
 NSaved= 4 IEnMin= 4 EnMin= -389.155147711308     IErMin= 4 ErrMin= 4.95D-04
 ErrMax= 4.95D-04  0.00D+00 EMaxC= 1.00D-01 BMatC= 9.58D-05 BMatP= 3.01D-03
 IDIUse=3 WtCom= 9.95D-01 WtEn= 4.95D-03
 Coeff-Com: -0.442D-02-0.841D-03 0.102D+00 0.903D+00
 Coeff-En:   0.000D+00 0.000D+00 0.000D+00 0.100D+01
 Coeff:     -0.440D-02-0.836D-03 0.102D+00 0.903D+00
 Gap=     0.500 Goal=   None    Shift=    0.000
 RMSDP=7.33D-05 MaxDP=1.75D-03 DE=-3.49D-03 OVMax= 3.51D-03

 Cycle   5  Pass 1  IDiag  1:
 E= -389.155272936618     Delta-E=       -0.000125225310 Rises=F Damp=F
 DIIS: error= 1.72D-04 at cycle   5 NSaved=   5.
 NSaved= 5 IEnMin= 5 EnMin= -389.155272936618     IErMin= 5 ErrMin= 1.72D-04
 ErrMax= 1.72D-04  0.00D+00 EMaxC= 1.00D-01 BMatC= 1.79D-05 BMatP= 9.58D-05
 IDIUse=3 WtCom= 9.98D-01 WtEn= 1.72D-03
 Coeff-Com:  0.248D-02-0.153D-01-0.106D+00 0.196D+00 0.923D+00
 Coeff-En:   0.000D+00 0.000D+00 0.000D+00 0.000D+00 0.100D+01
 Coeff:      0.247D-02-0.153D-01-0.105D+00 0.196D+00 0.923D+00
 Gap=     0.500 Goal=   None    Shift=    0.000
 RMSDP=3.09D-05 MaxDP=7.45D-04 DE=-1.25D-04 OVMax= 1.02D-03

 Cycle   6  Pass 1  IDiag  1:
 E= -389.155296550864     Delta-E=       -0.000023614245 Rises=F Damp=F
 DIIS: error= 3.74D-05 at cycle   6 NSaved=   6.
 NSaved= 6 IEnMin= 6 EnMin= -389.155296550864     IErMin= 6 ErrMin= 3.74D-05
 ErrMax= 3.74D-05  0.00D+00 EMaxC= 1.00D-01 BMatC= 5.50D-07 BMatP= 1.79D-05
 IDIUse=1 WtCom= 1.00D+00 WtEn= 0.00D+00
 Coeff-Com:  0.724D-03-0.330D-02-0.263D-01-0.272D-02 0.163D+00 0.868D+00
 Coeff:      0.724D-03-0.330D-02-0.263D-01-0.272D-02 0.163D+00 0.868D+00
 Gap=     0.500 Goal=   None    Shift=    0.000
 RMSDP=5.42D-06 MaxDP=1.67D-04 DE=-2.36D-05 OVMax= 3.13D-04

 Cycle   7  Pass 1  IDiag  1:
 E= -389.155297404297     Delta-E=       -0.000000853433 Rises=F Damp=F
 DIIS: error= 9.12D-06 at cycle   7 NSaved=   7.
 NSaved= 7 IEnMin= 7 EnMin= -389.155297404297     IErMin= 7 ErrMin= 9.12D-06
 ErrMax= 9.12D-06  0.00D+00 EMaxC= 1.00D-01 BMatC= 4.92D-08 BMatP= 5.50D-07
 IDIUse=1 WtCom= 1.00D+00 WtEn= 0.00D+00
 Coeff-Com: -0.555D-04 0.478D-03 0.325D-02-0.106D-01-0.462D-01 0.126D+00
 Coeff-Com:  0.927D+00
 Coeff:     -0.555D-04 0.478D-03 0.325D-02-0.106D-01-0.462D-01 0.126D+00
 Coeff:      0.927D+00
 Gap=     0.500 Goal=   None    Shift=    0.000
 RMSDP=1.70D-06 MaxDP=4.71D-05 DE=-8.53D-07 OVMax= 8.67D-05

 Cycle   8  Pass 1  IDiag  1:
 E= -389.155297489454     Delta-E=       -0.000000085157 Rises=F Damp=F
 DIIS: error= 2.98D-06 at cycle   8 NSaved=   8.
 NSaved= 8 IEnMin= 8 EnMin= -389.155297489454     IErMin= 8 ErrMin= 2.98D-06
 ErrMax= 2.98D-06  0.00D+00 EMaxC= 1.00D-01 BMatC= 4.91D-09 BMatP= 4.92D-08
 IDIUse=1 WtCom= 1.00D+00 WtEn= 0.00D+00
 Coeff-Com: -0.553D-04 0.226D-03 0.195D-02 0.331D-02-0.143D-01-0.848D-01
 Coeff-Com: -0.129D+00 0.122D+01
 Coeff:     -0.553D-04 0.226D-03 0.195D-02 0.331D-02-0.143D-01-0.848D-01
 Coeff:     -0.129D+00 0.122D+01
 Gap=     0.500 Goal=   None    Shift=    0.000
 RMSDP=7.76D-07 MaxDP=2.58D-05 DE=-8.52D-08 OVMax= 5.60D-05

 Cycle   9  Pass 1  IDiag  1:
 E= -389.155297504741     Delta-E=       -0.000000015287 Rises=F Damp=F
 DIIS: error= 1.35D-06 at cycle   9 NSaved=   9.
 NSaved= 9 IEnMin= 9 EnMin= -389.155297504741     IErMin= 9 ErrMin= 1.35D-06
 ErrMax= 1.35D-06  0.00D+00 EMaxC= 1.00D-01 BMatC= 6.52D-10 BMatP= 4.91D-09
 IDIUse=1 WtCom= 1.00D+00 WtEn= 0.00D+00
 Coeff-Com:  0.122D-04-0.777D-04-0.581D-03 0.123D-02 0.420D-02 0.525D-02
 Coeff-Com: -0.723D-01-0.197D+00 0.126D+01
 Coeff:      0.122D-04-0.777D-04-0.581D-03 0.123D-02 0.420D-02 0.525D-02
 Coeff:     -0.723D-01-0.197D+00 0.126D+01
 Gap=     0.500 Goal=   None    Shift=    0.000
 RMSDP=2.99D-07 MaxDP=1.28D-05 DE=-1.53D-08 OVMax= 2.62D-05

 Cycle  10  Pass 1  IDiag  1:
 E= -389.155297506954     Delta-E=       -0.000000002212 Rises=F Damp=F
 DIIS: error= 4.11D-07 at cycle  10 NSaved=  10.
 NSaved=10 IEnMin=10 EnMin= -389.155297506954     IErMin=10 ErrMin= 4.11D-07
 ErrMax= 4.11D-07  0.00D+00 EMaxC= 1.00D-01 BMatC= 8.48D-11 BMatP= 6.52D-10
 IDIUse=1 WtCom= 1.00D+00 WtEn= 0.00D+00
 Coeff-Com:  0.802D-05-0.367D-04-0.304D-03-0.200D-03 0.163D-02 0.134D-01
 Coeff-Com:  0.123D-01-0.192D+00 0.975D-01 0.107D+01
 Coeff:      0.802D-05-0.367D-04-0.304D-03-0.200D-03 0.163D-02 0.134D-01
 Coeff:      0.123D-01-0.192D+00 0.975D-01 0.107D+01
 Gap=     0.500 Goal=   None    Shift=    0.000
 RMSDP=1.08D-07 MaxDP=3.32D-06 DE=-2.21D-09 OVMax= 8.53D-06

 Cycle  11  Pass 1  IDiag  1:
 E= -389.155297507203     Delta-E=       -0.000000000249 Rises=F Damp=F
 DIIS: error= 1.55D-07 at cycle  11 NSaved=  11.
 NSaved=11 IEnMin=11 EnMin= -389.155297507203     IErMin=11 ErrMin= 1.55D-07
 ErrMax= 1.55D-07  0.00D+00 EMaxC= 1.00D-01 BMatC= 5.87D-12 BMatP= 8.48D-11
 IDIUse=1 WtCom= 1.00D+00 WtEn= 0.00D+00
 Coeff-Com: -0.515D-06 0.461D-05 0.339D-04-0.107D-03-0.457D-03 0.973D-03
 Coeff-Com:  0.872D-02 0.509D-02-0.108D+00 0.919D-01 0.100D+01
 Coeff:     -0.515D-06 0.461D-05 0.339D-04-0.107D-03-0.457D-03 0.973D-03
 Coeff:      0.872D-02 0.509D-02-0.108D+00 0.919D-01 0.100D+01
 Gap=     0.500 Goal=   None    Shift=    0.000
 RMSDP=2.30D-08 MaxDP=1.01D-06 DE=-2.49D-10 OVMax= 2.03D-06

 Cycle  12  Pass 1  IDiag  1:
 E= -389.155297507217     Delta-E=       -0.000000000015 Rises=F Damp=F
 DIIS: error= 4.41D-08 at cycle  12 NSaved=  12.
 NSaved=12 IEnMin=12 EnMin= -389.155297507217     IErMin=12 ErrMin= 4.41D-08
 ErrMax= 4.41D-08  0.00D+00 EMaxC= 1.00D-01 BMatC= 9.43D-13 BMatP= 5.87D-12
 IDIUse=1 WtCom= 1.00D+00 WtEn= 0.00D+00
 Coeff-Com: -0.945D-06 0.495D-05 0.398D-04 0.178D-05-0.291D-03-0.124D-02
 Coeff-Com:  0.336D-03 0.206D-01-0.365D-01-0.106D+00 0.193D+00 0.931D+00
 Coeff:     -0.945D-06 0.495D-05 0.398D-04 0.178D-05-0.291D-03-0.124D-02
 Coeff:      0.336D-03 0.206D-01-0.365D-01-0.106D+00 0.193D+00 0.931D+00
 Gap=     0.500 Goal=   None    Shift=    0.000
 RMSDP=9.72D-09 MaxDP=2.60D-07 DE=-1.46D-11 OVMax= 6.36D-07

 SCF Done:  E(RHF) =  -389.155297507     A.U. after   12 cycles
            NFock= 12  Conv=0.97D-08     -V/T= 2.0014
 KE= 3.886245291733D+02 PE=-1.931188315217D+03 EE= 6.401315149513D+02
 Leave Link  502 at Fri Sep 17 14:53:57 2021, MaxMem=   524288000 cpu:              27.7 elap:              28.1
 (Enter /opt/gaussian/g16_legacy/l801.exe)
 ExpMin= 1.61D-01 ExpMax= 3.05D+03 ExpMxC= 4.57D+02 IAcc=3 IRadAn=         5 AccDes= 0.00D+00
 HarFok:  IExCor=  205 AccDes= 0.00D+00 IRadAn=         5 IDoV=-2 UseB2=F ITyADJ=14
 ICtDFT= 12500011 ScaDFX=  1.000000  1.000000  1.000000  1.000000
 Largest valence mixing into a core orbital is  1.97D-04
 Largest core mixing into a valence orbital is  3.51D-05
 Range of M.O.s used for correlation:    11   240
 NBasis=   240 NAE=    39 NBE=    39 NFC=    10 NFV=     0
 NROrb=    230 NOA=    29 NOB=    29 NVA=   201 NVB=   201
 Leave Link  801 at Fri Sep 17 14:53:59 2021, MaxMem=   524288000 cpu:               1.6 elap:               1.9
 (Enter /opt/gaussian/g16_legacy/l906.exe)
 Frozen-core derivative calculation, NFC=  10 NFV=   0.
 FulOut=F Deriv=T AODrv=T NAtomX=    28
   MMem=          89  MDisk=          29 MDiskD=          29
  W3Min=     2246400 MinDsk=     2795480 NBas6D=         240
 NBas2D=       29244    NTT=       28920    LW2=     2040000
    MDV=   523629461 MDiskM=       30186 NBas2p=       24099
 Fully direct method using O(ONN) memory.
 IMap=   1   2   3   4   5   6   7   8   9  10  11  12  13  14  15  16  17  18  19  20
 IMap=  21  22  23  24  25  26  27  28  29  30  31  32  33  34  35  36  37  38  39
 JobTyp=1 Pass  1:  I=  11 to  39 NPSUse=  1 ParTrn=F ParDer=F DoDerP=T.
 Spin components of T(2) and E(2):
     alpha-alpha T2 =       0.5711548663D-01 E2=     -0.1637344172D+00
     alpha-beta  T2 =       0.3617437608D+00 E2=     -0.1089192594D+01
     beta-beta   T2 =       0.5711548663D-01 E2=     -0.1637344172D+00
 The integrals were generated   1 times.
 ANorm=    0.1214897006D+01
 E2 =    -0.1416661429D+01 EUMP2 =    -0.39057195893583D+03
 Leave Link  906 at Fri Sep 17 14:58:11 2021, MaxMem=   524288000 cpu:             251.1 elap:             251.6
 (Enter /opt/gaussian/g16_legacy/l1002.exe)
 Minotr:  Closed shell wavefunction.
          Computing MP2/KS-MP2 derivatives.
          Using Z-Vector for PSCF gradient.
          Skipping F1 and S1 gradient terms here.
          IDoAtm=1111111111111111111111111111
          Frozen-core window.
          Direct CPHF calculation.
          Differentiating once with respect to electric field.
                with respect to dipole field.
          Differentiating once with respect to nuclear coordinates.
          Requested convergence is 1.0D-10 RMS, and 1.0D-09 maximum.
          NewPWx=F KeepS1=T KeepF1=T KeepIn=T MapXYZ=F SortEE=F KeepMc=T.
 Keep R1 ints in memory in canonical form, NReq=425201067.
 FoFCou: FMM=F IPFlag=           0 FMFlag=           0 FMFlg1=           0
         NFxFlg=           0 DoJE=F BraDBF=F KetDBF=F FulRan=T
         wScrn=  0.000000 ICntrl=       600 IOpCl=  0 I1Cent=           0 NGrid=           0
         NMat0=    1 NMatS0=  28920 NMatT0=    0 NMatD0=    1 NMtDS0=    0 NMtDT0=    0
 Symmetry not used in FoFCou.
 Two-electron integral symmetry not used.
          MDV=     524288000 using IRadAn=       5.
          Solving linear equations separately, MaxMat=       0.
          There are     1 degrees of freedom in the 1st order CPHF.  IDoFFX=0 NUNeed=     1.
 LinEq1:  Iter=  0 NonCon=     1 RMS=2.55D-03 Max=4.26D-02 NDo=     1
 AX will form     1 AO Fock derivatives at one time.
 LinEq1:  Iter=  1 NonCon=     1 RMS=6.89D-04 Max=1.12D-02 NDo=     1
 LinEq1:  Iter=  2 NonCon=     1 RMS=1.61D-04 Max=4.13D-03 NDo=     1
 LinEq1:  Iter=  3 NonCon=     1 RMS=4.42D-05 Max=5.11D-04 NDo=     1
 LinEq1:  Iter=  4 NonCon=     1 RMS=1.99D-05 Max=8.26D-04 NDo=     1
 LinEq1:  Iter=  5 NonCon=     1 RMS=4.81D-06 Max=8.80D-05 NDo=     1
 LinEq1:  Iter=  6 NonCon=     1 RMS=1.45D-06 Max=2.32D-05 NDo=     1
 LinEq1:  Iter=  7 NonCon=     1 RMS=4.00D-07 Max=4.11D-06 NDo=     1
 LinEq1:  Iter=  8 NonCon=     1 RMS=8.44D-08 Max=1.47D-06 NDo=     1
 LinEq1:  Iter=  9 NonCon=     1 RMS=2.21D-08 Max=5.47D-07 NDo=     1
 LinEq1:  Iter= 10 NonCon=     1 RMS=7.35D-09 Max=1.94D-07 NDo=     1
 LinEq1:  Iter= 11 NonCon=     1 RMS=2.34D-09 Max=7.25D-08 NDo=     1
 LinEq1:  Iter= 12 NonCon=     1 RMS=8.52D-10 Max=1.39D-08 NDo=     1
 LinEq1:  Iter= 13 NonCon=     1 RMS=2.39D-10 Max=3.48D-09 NDo=     1
 LinEq1:  Iter= 14 NonCon=     0 RMS=5.52D-11 Max=6.92D-10 NDo=     1
 Linear equations converged to 1.000D-10 1.000D-09 after    14 iterations.
 End of Minotr F.D. properties file   721 does not exist.
 End of Minotr F.D. properties file   722 does not exist.
 End of Minotr F.D. properties file   788 does not exist.
 Leave Link 1002 at Fri Sep 17 14:58:47 2021, MaxMem=   524288000 cpu:              35.6 elap:              36.0
 (Enter /opt/gaussian/g16_legacy/l601.exe)
 Copying SCF densities to generalized density rwf, IOpCl= 0 IROHF=0.

 **********************************************************************

            Population analysis using the SCF density.

 **********************************************************************

 Orbital symmetries:
       Occupied  (A) (A) (A) (A) (A) (A) (A) (A) (A) (A) (A) (A)
                 (A) (A) (A) (A) (A) (A) (A) (A) (A) (A) (A) (A)
                 (A) (A) (A) (A) (A) (A) (A) (A) (A) (A) (A) (A)
                 (A) (A) (A)
       Virtual   (A) (A) (A) (A) (A) (A) (A) (A) (A) (A) (A) (A)
                 (A) (A) (A) (A) (A) (A) (A) (A) (A) (A) (A) (A)
                 (A) (A) (A) (A) (A) (A) (A) (A) (A) (A) (A) (A)
                 (A) (A) (A) (A) (A) (A) (A) (A) (A) (A) (A) (A)
                 (A) (A) (A) (A) (A) (A) (A) (A) (A) (A) (A) (A)
                 (A) (A) (A) (A) (A) (A) (A) (A) (A) (A) (A) (A)
                 (A) (A) (A) (A) (A) (A) (A) (A) (A) (A) (A) (A)
                 (A) (A) (A) (A) (A) (A) (A) (A) (A) (A) (A) (A)
                 (A) (A) (A) (A) (A) (A) (A) (A) (A) (A) (A) (A)
                 (A) (A) (A) (A) (A) (A) (A) (A) (A) (A) (A) (A)
                 (A) (A) (A) (A) (A) (A) (A) (A) (A) (A) (A) (A)
                 (A) (A) (A) (A) (A) (A) (A) (A) (A) (A) (A) (A)
                 (A) (A) (A) (A) (A) (A) (A) (A) (A) (A) (A) (A)
                 (A) (A) (A) (A) (A) (A) (A) (A) (A) (A) (A) (A)
                 (A) (A) (A) (A) (A) (A) (A) (A) (A) (A) (A) (A)
                 (A) (A) (A) (A) (A) (A) (A) (A) (A) (A) (A) (A)
                 (A) (A) (A) (A) (A) (A) (A) (A) (A)
 The electronic state is 1-A.
 Alpha  occ. eigenvalues --  -11.23060 -11.22491 -11.21994 -11.21919 -11.21893
 Alpha  occ. eigenvalues --  -11.21650 -11.21538 -11.21499 -11.21457 -11.21436
 Alpha  occ. eigenvalues --   -1.10615  -1.08328  -1.01892  -0.98023  -0.93648
 Alpha  occ. eigenvalues --   -0.91774  -0.86739  -0.82690  -0.70608  -0.69412
 Alpha  occ. eigenvalues --   -0.64401  -0.61334  -0.60398  -0.59009  -0.58077
 Alpha  occ. eigenvalues --   -0.56879  -0.55469  -0.55040  -0.53554  -0.51978
 Alpha  occ. eigenvalues --   -0.51778  -0.51259  -0.50452  -0.49764  -0.47236
 Alpha  occ. eigenvalues --   -0.46642  -0.44233  -0.33255  -0.31613
 Alpha virt. eigenvalues --    0.18419   0.19608   0.22268   0.24509   0.24868
 Alpha virt. eigenvalues --    0.27280   0.28581   0.29021   0.30342   0.30570
 Alpha virt. eigenvalues --    0.31452   0.32295   0.32994   0.33605   0.33919
 Alpha virt. eigenvalues --    0.34862   0.36107   0.37175   0.38359   0.39994
 Alpha virt. eigenvalues --    0.40807   0.41938   0.42662   0.44320   0.45311
 Alpha virt. eigenvalues --    0.51885   0.54069   0.61042   0.62386   0.69421
 Alpha virt. eigenvalues --    0.71420   0.71711   0.74324   0.75991   0.76600
 Alpha virt. eigenvalues --    0.77889   0.78836   0.80148   0.80437   0.82525
 Alpha virt. eigenvalues --    0.82864   0.85806   0.89227   0.90311   0.92127
 Alpha virt. eigenvalues --    0.93068   0.94946   0.96557   0.97592   0.99410
 Alpha virt. eigenvalues --    0.99665   1.01110   1.02714   1.04773   1.06343
 Alpha virt. eigenvalues --    1.07245   1.08350   1.08464   1.10883   1.12202
 Alpha virt. eigenvalues --    1.13083   1.13495   1.14141   1.15110   1.15430
 Alpha virt. eigenvalues --    1.15972   1.16405   1.17991   1.18286   1.20091
 Alpha virt. eigenvalues --    1.20921   1.22024   1.22904   1.24889   1.26883
 Alpha virt. eigenvalues --    1.29777   1.39909   1.40851   1.44074   1.45169
 Alpha virt. eigenvalues --    1.46113   1.53927   1.55258   1.57488   1.59002
 Alpha virt. eigenvalues --    1.61320   1.62898   1.65442   1.68692   1.70719
 Alpha virt. eigenvalues --    1.74994   1.83304   1.90946   1.92632   1.95890
 Alpha virt. eigenvalues --    1.98117   2.01341   2.02512   2.04963   2.08420
 Alpha virt. eigenvalues --    2.09279   2.11239   2.11880   2.13548   2.13758
 Alpha virt. eigenvalues --    2.15745   2.17934   2.19181   2.23539   2.27676
 Alpha virt. eigenvalues --    2.27929   2.30156   2.32120   2.34933   2.35558
 Alpha virt. eigenvalues --    2.35637   2.35786   2.39413   2.39801   2.40225
 Alpha virt. eigenvalues --    2.41252   2.41851   2.42900   2.44988   2.45573
 Alpha virt. eigenvalues --    2.47185   2.49012   2.49665   2.49765   2.53203
 Alpha virt. eigenvalues --    2.56185   2.58403   2.60483   2.62611   2.64594
 Alpha virt. eigenvalues --    2.66046   2.67903   2.71569   2.72560   2.74073
 Alpha virt. eigenvalues --    2.76098   2.77699   2.81001   2.82553   2.84078
 Alpha virt. eigenvalues --    2.86959   2.90350   2.92352   2.93719   2.93882
 Alpha virt. eigenvalues --    2.97258   2.98945   3.00897   3.02345   3.04612
 Alpha virt. eigenvalues --    3.06568   3.07047   3.09533   3.11568   3.16239
 Alpha virt. eigenvalues --    3.17178   3.17505   3.19749   3.20512   3.20973
 Alpha virt. eigenvalues --    3.22294   3.25237   3.26471   3.27443   3.37025
 Alpha virt. eigenvalues --    3.39004   3.44380   3.45749   3.55486   3.57322
 Alpha virt. eigenvalues --    3.58494   3.60441   3.67987   3.73337   3.78356
 Alpha virt. eigenvalues --    3.78761   3.80290   3.81201   3.82240   3.82870
 Alpha virt. eigenvalues --    3.83545   3.85734   3.87948   3.89123   3.90859
 Alpha virt. eigenvalues --    3.96057   4.59176   4.62295   4.74495   4.82468
 Alpha virt. eigenvalues --    4.89198   4.92416   4.93233   5.07345   5.10304
 Alpha virt. eigenvalues --    5.16932
          Condensed to atoms (all electrons):
               1          2          3          4          5          6
     1  C    5.000771   0.414381   0.412397   0.339577  -0.058824  -0.000423
     2  H    0.414381   0.576751  -0.030332  -0.040669   0.003305  -0.000036
     3  H    0.412397  -0.030332   0.583791  -0.045113  -0.004634  -0.000305
     4  C    0.339577  -0.040669  -0.045113   4.957298   0.350747  -0.046040
     5  C   -0.058824   0.003305  -0.004634   0.350747   4.895121   0.399665
     6  H   -0.000423  -0.000036  -0.000305  -0.046040   0.399665   0.598016
     7  H   -0.003456  -0.000014   0.002508  -0.043206   0.397609  -0.035154
     8  H    0.003653  -0.000107   0.000093  -0.041418   0.406586  -0.028119
     9  C   -0.043515  -0.002303   0.001833   0.696645  -0.045813  -0.000963
    10  H    0.003081   0.000055  -0.000112  -0.036444  -0.006440   0.000130
    11  C   -0.007012  -0.002043   0.000131  -0.050646   0.003399  -0.000102
    12  H   -0.002039  -0.001243   0.000010  -0.000449   0.000090   0.000001
    13  H    0.000233  -0.000035  -0.000010   0.000511  -0.000102   0.000015
    14  H    0.000216   0.000157   0.000029  -0.001299  -0.000114  -0.000005
    15  C   -0.000105  -0.000001  -0.000032   0.000001  -0.000000  -0.000000
    16  H   -0.000002   0.000002  -0.000002   0.000000  -0.000000  -0.000000
    17  H    0.000021  -0.000001  -0.000005  -0.000000   0.000000   0.000000
    18  H   -0.000004   0.000000   0.000001   0.000000  -0.000000   0.000000
    19  C   -0.002758   0.000602   0.000934  -0.000035   0.000007   0.000017
    20  C    0.000487  -0.000011   0.000129  -0.000018  -0.000017  -0.000029
    21  H    0.000080  -0.000011   0.000148  -0.000063   0.000095   0.000222
    22  H   -0.000041  -0.000000   0.000012   0.000001  -0.000000  -0.000000
    23  H    0.000071  -0.000000  -0.000066  -0.000002   0.000000  -0.000001
    24  C   -0.062582  -0.001372  -0.000486   0.006101  -0.000076  -0.000082
    25  H   -0.000349   0.001132   0.000185  -0.000118  -0.000002  -0.000000
    26  C    0.325383  -0.041391  -0.042899  -0.056882  -0.000802   0.000832
    27  H   -0.045286  -0.002681   0.004396  -0.001367   0.000304   0.000016
    28  H   -0.040030   0.004047  -0.002360  -0.002267  -0.000487  -0.000581
               7          8          9         10         11         12
     1  C   -0.003456   0.003653  -0.043515   0.003081  -0.007012  -0.002039
     2  H   -0.000014  -0.000107  -0.002303   0.000055  -0.002043  -0.001243
     3  H    0.002508   0.000093   0.001833  -0.000112   0.000131   0.000010
     4  C   -0.043206  -0.041418   0.696645  -0.036444  -0.050646  -0.000449
     5  C    0.397609   0.406586  -0.045813  -0.006440   0.003399   0.000090
     6  H   -0.035154  -0.028119  -0.000963   0.000130  -0.000102   0.000001
     7  H    0.593323  -0.027587  -0.000478   0.000246  -0.000113  -0.000001
     8  H   -0.027587   0.570239  -0.002763   0.002176   0.000140   0.000004
     9  C   -0.000478  -0.002763   4.939979   0.404572   0.338340  -0.041985
    10  H    0.000246   0.002176   0.404572   0.559845  -0.043628   0.003343
    11  C   -0.000113   0.000140   0.338340  -0.043628   4.903497   0.408026
    12  H   -0.000001   0.000004  -0.041985   0.003343   0.408026   0.575198
    13  H   -0.000004  -0.000008  -0.042707  -0.002622   0.402920  -0.029447
    14  H    0.000021  -0.000004  -0.044544  -0.000244   0.400266  -0.027468
    15  C    0.000000   0.000000  -0.000000   0.000000   0.000000  -0.000000
    16  H   -0.000000  -0.000000   0.000000   0.000000  -0.000000   0.000000
    17  H   -0.000000  -0.000000   0.000000  -0.000000  -0.000000  -0.000000
    18  H   -0.000000   0.000000  -0.000000   0.000000  -0.000000   0.000000
    19  C   -0.000001  -0.000000  -0.000002   0.000000   0.000000   0.000001
    20  C   -0.000002   0.000000  -0.000000  -0.000000  -0.000000   0.000000
    21  H    0.000005  -0.000001  -0.000001   0.000000  -0.000000   0.000000
    22  H    0.000000   0.000000   0.000000   0.000000   0.000000   0.000000
    23  H    0.000000  -0.000000   0.000000  -0.000000   0.000000  -0.000000
    24  C    0.000000   0.000002  -0.000010   0.000002  -0.000022   0.000034
    25  H    0.000000   0.000000   0.000009  -0.000000  -0.000002   0.000035
    26  C    0.000024  -0.000094  -0.003333  -0.000120   0.000493  -0.000174
    27  H    0.000006  -0.000006   0.000946  -0.000032   0.000106   0.000114
    28  H    0.000076  -0.000024   0.000498   0.000002  -0.000024  -0.000005
              13         14         15         16         17         18
     1  C    0.000233   0.000216  -0.000105  -0.000002   0.000021  -0.000004
     2  H   -0.000035   0.000157  -0.000001   0.000002  -0.000001   0.000000
     3  H   -0.000010   0.000029  -0.000032  -0.000002  -0.000005   0.000001
     4  C    0.000511  -0.001299   0.000001   0.000000  -0.000000   0.000000
     5  C   -0.000102  -0.000114  -0.000000  -0.000000   0.000000  -0.000000
     6  H    0.000015  -0.000005  -0.000000  -0.000000   0.000000   0.000000
     7  H   -0.000004   0.000021   0.000000  -0.000000  -0.000000  -0.000000
     8  H   -0.000008  -0.000004   0.000000  -0.000000  -0.000000   0.000000
     9  C   -0.042707  -0.044544  -0.000000   0.000000   0.000000  -0.000000
    10  H   -0.002622  -0.000244   0.000000   0.000000  -0.000000   0.000000
    11  C    0.402920   0.400266   0.000000  -0.000000  -0.000000  -0.000000
    12  H   -0.029447  -0.027468  -0.000000   0.000000  -0.000000   0.000000
    13  H    0.585795  -0.033312  -0.000000   0.000000   0.000000  -0.000000
    14  H   -0.033312   0.585318   0.000000  -0.000000  -0.000000   0.000000
    15  C   -0.000000   0.000000   4.903465   0.405367   0.396992   0.399282
    16  H    0.000000  -0.000000   0.405367   0.568091  -0.027354  -0.027568
    17  H    0.000000  -0.000000   0.396992  -0.027354   0.594254  -0.034897
    18  H   -0.000000   0.000000   0.399282  -0.027568  -0.034897   0.593075
    19  C    0.000000  -0.000000   0.351807  -0.040406  -0.044208  -0.045805
    20  C   -0.000000   0.000000  -0.065377   0.003697  -0.002147  -0.001090
    21  H    0.000000  -0.000000   0.003707  -0.000109  -0.000073  -0.000024
    22  H   -0.000000   0.000000  -0.001679  -0.000080  -0.000367   0.002542
    23  H    0.000000  -0.000000  -0.003426   0.000012   0.002838  -0.000508
    24  C   -0.000002   0.000002  -0.044524  -0.002346  -0.000621  -0.001113
    25  H   -0.000000  -0.000000  -0.006705   0.002204   0.000223   0.000153
    26  C    0.000079  -0.000045   0.003141   0.000141  -0.000086  -0.000123
    27  H   -0.000059   0.000018  -0.000098  -0.000011  -0.000002   0.000012
    28  H    0.000000  -0.000000   0.000062   0.000006  -0.000003   0.000004
              19         20         21         22         23         24
     1  C   -0.002758   0.000487   0.000080  -0.000041   0.000071  -0.062582
     2  H    0.000602  -0.000011  -0.000011  -0.000000  -0.000000  -0.001372
     3  H    0.000934   0.000129   0.000148   0.000012  -0.000066  -0.000486
     4  C   -0.000035  -0.000018  -0.000063   0.000001  -0.000002   0.006101
     5  C    0.000007  -0.000017   0.000095  -0.000000   0.000000  -0.000076
     6  H    0.000017  -0.000029   0.000222  -0.000000  -0.000001  -0.000082
     7  H   -0.000001  -0.000002   0.000005   0.000000   0.000000   0.000000
     8  H   -0.000000   0.000000  -0.000001   0.000000  -0.000000   0.000002
     9  C   -0.000002  -0.000000  -0.000001   0.000000   0.000000  -0.000010
    10  H    0.000000  -0.000000   0.000000   0.000000  -0.000000   0.000002
    11  C    0.000000  -0.000000  -0.000000   0.000000   0.000000  -0.000022
    12  H    0.000001   0.000000   0.000000   0.000000  -0.000000   0.000034
    13  H    0.000000  -0.000000   0.000000  -0.000000   0.000000  -0.000002
    14  H   -0.000000   0.000000  -0.000000   0.000000  -0.000000   0.000002
    15  C    0.351807  -0.065377   0.003707  -0.001679  -0.003426  -0.044524
    16  H   -0.040406   0.003697  -0.000109  -0.000080   0.000012  -0.002346
    17  H   -0.044208  -0.002147  -0.000073  -0.000367   0.002838  -0.000621
    18  H   -0.045805  -0.001090  -0.000024   0.002542  -0.000508  -0.001113
    19  C    4.920216   0.348924  -0.036970  -0.043922  -0.043840   0.695490
    20  C    0.348924   4.906834   0.405948   0.398580   0.402437  -0.043605
    21  H   -0.036970   0.405948   0.570740  -0.026870  -0.029654  -0.002891
    22  H   -0.043922   0.398580  -0.026870   0.583037  -0.033084  -0.000744
    23  H   -0.043840   0.402437  -0.029654  -0.033084   0.585568   0.000410
    24  C    0.695490  -0.043605  -0.002891  -0.000744   0.000410   4.962290
    25  H   -0.035974   0.003360   0.000053  -0.000124  -0.000112   0.402998
    26  C   -0.048864  -0.007183  -0.002350   0.000191   0.000276   0.341681
    27  H    0.000973   0.000145   0.000041   0.000033  -0.000012  -0.044006
    28  H    0.000557  -0.001878  -0.001474   0.000040  -0.000035  -0.043144
              25         26         27         28
     1  C   -0.000349   0.325383  -0.045286  -0.040030
     2  H    0.001132  -0.041391  -0.002681   0.004047
     3  H    0.000185  -0.042899   0.004396  -0.002360
     4  C   -0.000118  -0.056882  -0.001367  -0.002267
     5  C   -0.000002  -0.000802   0.000304  -0.000487
     6  H   -0.000000   0.000832   0.000016  -0.000581
     7  H    0.000000   0.000024   0.000006   0.000076
     8  H    0.000000  -0.000094  -0.000006  -0.000024
     9  C    0.000009  -0.003333   0.000946   0.000498
    10  H   -0.000000  -0.000120  -0.000032   0.000002
    11  C   -0.000002   0.000493   0.000106  -0.000024
    12  H    0.000035  -0.000174   0.000114  -0.000005
    13  H   -0.000000   0.000079  -0.000059   0.000000
    14  H   -0.000000  -0.000045   0.000018  -0.000000
    15  C   -0.006705   0.003141  -0.000098   0.000062
    16  H    0.002204   0.000141  -0.000011   0.000006
    17  H    0.000223  -0.000086  -0.000002  -0.000003
    18  H    0.000153  -0.000123   0.000012   0.000004
    19  C   -0.035974  -0.048864   0.000973   0.000557
    20  C    0.003360  -0.007183   0.000145  -0.001878
    21  H    0.000053  -0.002350   0.000041  -0.001474
    22  H   -0.000124   0.000191   0.000033   0.000040
    23  H   -0.000112   0.000276  -0.000012  -0.000035
    24  C    0.402998   0.341681  -0.044006  -0.043144
    25  H    0.558286  -0.041953  -0.003531   0.003305
    26  C   -0.041953   4.978455   0.415023   0.414987
    27  H   -0.003531   0.415023   0.581185  -0.029796
    28  H    0.003305   0.414987  -0.029796   0.579662
 Mulliken charges:
               1
     1  C   -0.233925
     2  H    0.121817
     3  H    0.119759
     4  C    0.015153
     5  C   -0.339615
     6  H    0.112926
     7  H    0.116197
     8  H    0.117239
     9  C   -0.154405
    10  H    0.116191
    11  C   -0.353727
    12  H    0.115955
    13  H    0.118757
    14  H    0.121010
    15  C   -0.341877
    16  H    0.118357
    17  H    0.115436
    18  H    0.116063
    19  C    0.023256
    20  C   -0.349184
    21  H    0.119449
    22  H    0.122474
    23  H    0.119129
    24  C   -0.161385
    25  H    0.116928
    26  C   -0.234408
    27  H    0.123568
    28  H    0.118862
 Sum of Mulliken charges =  -0.00000
 Mulliken charges with hydrogens summed into heavy atoms:
               1
     1  C    0.007650
     4  C    0.015153
     5  C    0.006746
     9  C   -0.038214
    11  C    0.001996
    15  C    0.007979
    19  C    0.023256
    20  C    0.011867
    24  C   -0.044457
    26  C    0.008023
 Electronic spatial extent (au):  <R**2>=           2545.0065
 Charge=             -0.0000 electrons
 Dipole moment (field-independent basis, Debye):
    X=              0.3493    Y=              0.1468    Z=              0.0260  Tot=              0.3798
 Quadrupole moment (field-independent basis, Debye-Ang):
   XX=            -63.8821   YY=            -63.9194   ZZ=            -67.2159
   XY=              0.9691   XZ=              0.9084   YZ=             -0.2408
 Traceless Quadrupole moment (field-independent basis, Debye-Ang):
   XX=              1.1237   YY=              1.0864   ZZ=             -2.2101
   XY=              0.9691   XZ=              0.9084   YZ=             -0.2408
 Octapole moment (field-independent basis, Debye-Ang**2):
  XXX=              0.9341  YYY=             -2.8081  ZZZ=              0.8868  XYY=             -0.2805
  XXY=              1.7979  XXZ=             -2.7197  XZZ=              1.8057  YZZ=              1.3762
  YYZ=              0.5286  XYZ=             -0.3808
 Hexadecapole moment (field-independent basis, Debye-Ang**3):
 XXXX=          -2708.1359 YYYY=           -641.3519 ZZZZ=           -161.4603 XXXY=              7.6884
 XXXZ=             11.8594 YYYX=             -8.1680 YYYZ=             -1.4929 ZZZX=              2.8103
 ZZZY=              1.9629 XXYY=           -565.0525 XXZZ=           -492.0535 YYZZ=           -130.8306
 XXYZ=             -3.0906 YYXZ=              1.7820 ZZXY=              8.1552
 N-N= 5.132769735853D+02 E-N=-1.931188314223D+03  KE= 3.886245291733D+02
 No NMR shielding tensors so no spin-rotation constants.
 Leave Link  601 at Fri Sep 17 14:58:48 2021, MaxMem=   524288000 cpu:               0.3 elap:               0.6
 (Enter /opt/gaussian/g16_legacy/l701.exe)
 ... and contract with generalized density number  2.
 Compute integral first derivatives.
 Leave Link  701 at Fri Sep 17 14:58:48 2021, MaxMem=   524288000 cpu:               0.3 elap:               0.5
 (Enter /opt/gaussian/g16_legacy/l702.exe)
 L702 exits ... SP integral derivatives will be done elsewhere.
 Leave Link  702 at Fri Sep 17 14:58:48 2021, MaxMem=   524288000 cpu:               0.1 elap:               0.1
 (Enter /opt/gaussian/g16_legacy/l703.exe)
 Integral derivatives from FoFJK, PRISM(SPDF).
 Compute integral first derivatives, UseDBF=F ICtDFT=           0.
 Calling FoFJK, ICntrl=  10002127 FMM=F ISym2X=0 I1Cent= 0 IOpClX= 0 NMat=1 NMatS=1 NMatT=0.
 FoFJK:  IHMeth= 1 ICntrl=10002127 DoSepK=F KAlg= 0 I1Cent=           0 FoldK=F
 IRaf=         0 NMat=       1 IRICut=       1 DoRegI=T DoRafI=F ISym2E= 0 IDoP0=0 IntGTp=1.
 FoFCou: FMM=F IPFlag=           0 FMFlag=      100000 FMFlg1=         800
         NFxFlg=           0 DoJE=F BraDBF=F KetDBF=F FulRan=T
         wScrn=  0.000000 ICntrl=  10002127 IOpCl=  0 I1Cent=           0 NGrid=           0
         NMat0=    1 NMatS0=      1 NMatT0=    0 NMatD0=    1 NMtDS0=    0 NMtDT0=    0
 Symmetry not used in FoFCou.
 Leave Link  703 at Fri Sep 17 14:59:22 2021, MaxMem=   524288000 cpu:              33.1 elap:              34.0
 (Enter /opt/gaussian/g16_legacy/l716.exe)
 Dipole        = 1.00132549D-01 3.50248045D-02 3.58494406D-03
 ***** Axes restored to original set *****
 -------------------------------------------------------------------
 Center     Atomic                   Forces (Hartrees/Bohr)
 Number     Number              X              Y              Z
 -------------------------------------------------------------------
      1        6           0.008199596    0.001350029    0.003676327
      2        1          -0.000274810   -0.002168164   -0.003346821
      3        1           0.000288294   -0.000724934   -0.004354742
      4        6           0.002693833   -0.000643704    0.005472799
      5        6           0.002821517   -0.001014383   -0.000403491
      6        1          -0.000556252   -0.000371378    0.003244494
      7        1          -0.001147044   -0.001046086   -0.002986106
      8        1          -0.002767406    0.002984203   -0.000780803
      9        6          -0.002189674   -0.001923385   -0.002244683
     10        1          -0.003326020   -0.001123837    0.000309437
     11        6          -0.000751023    0.002549623   -0.000917820
     12        1           0.001865378   -0.002338442    0.001693706
     13        1          -0.000331658    0.001570900    0.003105777
     14        1          -0.000054948    0.001519143   -0.003057047
     15        6           0.001111661    0.003284116    0.000232790
     16        1           0.000824613   -0.004311059    0.000262722
     17        1          -0.001421060   -0.000576088   -0.003174670
     18        1          -0.000765920   -0.000005598    0.003249446
     19        6           0.001562356    0.004785896    0.002252301
     20        6           0.003695658   -0.002892393    0.000424683
     21        1          -0.001443492    0.002794880   -0.001553266
     22        1          -0.000831371   -0.000413058    0.002965789
     23        1          -0.000492873    0.000593452   -0.003613064
     24        6           0.001598608   -0.002129098   -0.004308667
     25        1          -0.002709162   -0.001781877    0.000997985
     26        6          -0.006558620    0.001270733   -0.003821247
     27        1           0.001082273   -0.001041729    0.003961188
     28        1          -0.000122452    0.001802237    0.002712982
 -------------------------------------------------------------------
 Cartesian Forces:  Max     0.008199596 RMS     0.002540431
 Leave Link  716 at Fri Sep 17 14:59:23 2021, MaxMem=   524288000 cpu:               0.1 elap:               0.4
 (Enter /opt/gaussian/g16_legacy/l103.exe)

 GradGradGradGradGradGradGradGradGradGradGradGradGradGradGradGradGradGrad
 Berny optimization.
 FormGI is forming the generalized inverse of G from B-inverse, IUseBI=4.
 Internal  Forces:  Max     0.004130849 RMS     0.001893068
 Search for a local minimum.
 Step number   1 out of a maximum of  138
 All quantities printed in internal units (Hartrees-Bohrs-Radians)
 RMS Force = .18931D-02 SwitMx=.10000D-02 MixMth= 1
 Mixed Optimization -- RFO/linear search
 Second derivative matrix not updated -- first step.
 ITU=  0
     Eigenvalues ---    0.00342   0.00570   0.00666   0.00680   0.00693
     Eigenvalues ---    0.00715   0.00820   0.01219   0.01287   0.01570
     Eigenvalues ---    0.01642   0.02780   0.02784   0.04013   0.04133
     Eigenvalues ---    0.05350   0.05403   0.06982   0.07039   0.07088
     Eigenvalues ---    0.07093   0.07265   0.07300   0.07347   0.07505
     Eigenvalues ---    0.09279   0.09366   0.12769   0.12846   0.15999
     Eigenvalues ---    0.15999   0.16000   0.16000   0.16000   0.16000
     Eigenvalues ---    0.16000   0.16000   0.16000   0.16000   0.16000
     Eigenvalues ---    0.16000   0.16000   0.16000   0.21859   0.21867
     Eigenvalues ---    0.22000   0.22000   0.24993   0.24996   0.24999
     Eigenvalues ---    0.24999   0.29235   0.30873   0.31596   0.31707
     Eigenvalues ---    0.31808   0.31979   0.32807   0.33866   0.33937
     Eigenvalues ---    0.34060   0.34191   0.34219   0.34221   0.34251
     Eigenvalues ---    0.34253   0.34254   0.34259   0.34275   0.34288
     Eigenvalues ---    0.34302   0.34333   0.34538   0.34555   0.34785
     Eigenvalues ---    0.34850   0.55509   0.55574
 RFO step:  Lambda=-2.86760404D-03 EMin= 3.42025428D-03
 Linear search not attempted -- first point.
 Iteration  1 RMS(Cart)=  0.04042511 RMS(Int)=  0.00070786
 Iteration  2 RMS(Cart)=  0.00101766 RMS(Int)=  0.00015587
 Iteration  3 RMS(Cart)=  0.00000056 RMS(Int)=  0.00015587
 ITry= 1 IFail=0 DXMaxC= 1.34D-01 DCOld= 1.00D+10 DXMaxT= 3.00D-01 DXLimC= 3.00D+00 Rises=F
 Variable       Old X    -DE/DX   Delta X   Delta X   Delta X     New X
                                 (Linear)    (Quad)   (Total)
    R1        2.07229  -0.00295   0.00000  -0.00859  -0.00859   2.06369
    R2        2.07556  -0.00308   0.00000  -0.00902  -0.00902   2.06654
    R3        2.86256  -0.00348   0.00000  -0.01116  -0.01116   2.85141
    R4        2.89515   0.00159   0.00000   0.00537   0.00537   2.90052
    R5        2.84889  -0.00067   0.00000  -0.00211  -0.00211   2.84679
    R6        2.54682  -0.00385   0.00000  -0.00690  -0.00690   2.53992
    R7        2.06824  -0.00167   0.00000  -0.00483  -0.00483   2.06341
    R8        2.06905  -0.00213   0.00000  -0.00616  -0.00616   2.06288
    R9        2.06959  -0.00375   0.00000  -0.01085  -0.01085   2.05874
   R10        2.05919  -0.00216   0.00000  -0.00614  -0.00614   2.05304
   R11        2.82693   0.00310   0.00000   0.00937   0.00937   2.83630
   R12        2.06403  -0.00304   0.00000  -0.00871  -0.00871   2.05532
   R13        2.06895  -0.00268   0.00000  -0.00774  -0.00774   2.06121
   R14        2.06772  -0.00161   0.00000  -0.00464  -0.00464   2.06308
   R15        2.06962  -0.00401   0.00000  -0.01162  -0.01162   2.05800
   R16        2.06909  -0.00198   0.00000  -0.00574  -0.00574   2.06335
   R17        2.06904  -0.00196   0.00000  -0.00568  -0.00568   2.06337
   R18        2.84683  -0.00074   0.00000  -0.00230  -0.00230   2.84453
   R19        2.84182  -0.00045   0.00000  -0.00140  -0.00140   2.84041
   R20        2.54625  -0.00324   0.00000  -0.00580  -0.00580   2.54045
   R21        2.06432  -0.00294   0.00000  -0.00844  -0.00844   2.05589
   R22        2.06869  -0.00183   0.00000  -0.00530  -0.00530   2.06339
   R23        2.07010  -0.00271   0.00000  -0.00787  -0.00787   2.06223
   R24        2.06026  -0.00208   0.00000  -0.00592  -0.00592   2.05433
   R25        2.84497  -0.00138   0.00000  -0.00430  -0.00430   2.84067
   R26        2.07436  -0.00273   0.00000  -0.00799  -0.00799   2.06637
   R27        2.06847  -0.00241   0.00000  -0.00697  -0.00697   2.06149
    A1        1.82993   0.00206   0.00000   0.02221   0.02204   1.85197
    A2        1.93125  -0.00017   0.00000   0.00558   0.00560   1.93685
    A3        1.91973  -0.00201   0.00000  -0.01371  -0.01375   1.90598
    A4        1.90137  -0.00008   0.00000   0.00122   0.00122   1.90259
    A5        1.91820  -0.00275   0.00000  -0.02408  -0.02411   1.89408
    A6        1.95892   0.00286   0.00000   0.00931   0.00934   1.96826
    A7        2.00699   0.00175   0.00000   0.00724   0.00670   2.01369
    A8        2.17229  -0.00413   0.00000  -0.01596  -0.01647   2.15581
    A9        2.10371   0.00240   0.00000   0.00987   0.00931   2.11302
   A10        1.92850   0.00227   0.00000   0.01210   0.01212   1.94062
   A11        1.92466   0.00167   0.00000   0.00913   0.00915   1.93381
   A12        1.95911  -0.00264   0.00000  -0.01324  -0.01321   1.94590
   A13        1.89490  -0.00307   0.00000  -0.02472  -0.02471   1.87019
   A14        1.87696   0.00055   0.00000   0.00553   0.00557   1.88253
   A15        1.87756   0.00111   0.00000   0.01037   0.01040   1.88795
   A16        2.06927  -0.00195   0.00000  -0.01343  -0.01345   2.05582
   A17        2.22584  -0.00181   0.00000  -0.00809  -0.00811   2.21773
   A18        1.98795   0.00377   0.00000   0.02169   0.02167   2.00962
   A19        1.98086  -0.00285   0.00000  -0.01750  -0.01742   1.96343
   A20        1.91014   0.00236   0.00000   0.01546   0.01540   1.92554
   A21        1.91723   0.00386   0.00000   0.02280   0.02277   1.94000
   A22        1.87286   0.00045   0.00000   0.00444   0.00450   1.87736
   A23        1.89302  -0.00096   0.00000  -0.00755  -0.00746   1.88556
   A24        1.88712  -0.00306   0.00000  -0.01873  -0.01890   1.86822
   A25        1.87911   0.00092   0.00000   0.00938   0.00942   1.88853
   A26        1.87882   0.00092   0.00000   0.00788   0.00792   1.88674
   A27        1.96059  -0.00277   0.00000  -0.01384  -0.01381   1.94678
   A28        1.89486  -0.00313   0.00000  -0.02543  -0.02542   1.86944
   A29        1.92491   0.00221   0.00000   0.01245   0.01247   1.93738
   A30        1.92353   0.00174   0.00000   0.00872   0.00874   1.93228
   A31        1.99474   0.00147   0.00000   0.00583   0.00581   2.00055
   A32        2.10563   0.00188   0.00000   0.00747   0.00745   2.11308
   A33        2.18277  -0.00334   0.00000  -0.01319  -0.01321   2.16956
   A34        1.97925  -0.00212   0.00000  -0.00954  -0.00952   1.96973
   A35        1.92171   0.00225   0.00000   0.01138   0.01140   1.93311
   A36        1.92087   0.00000   0.00000  -0.00092  -0.00091   1.91996
   A37        1.88487   0.00022   0.00000   0.00323   0.00325   1.88812
   A38        1.86351   0.00194   0.00000   0.01661   0.01662   1.88014
   A39        1.89075  -0.00238   0.00000  -0.02155  -0.02153   1.86923
   A40        2.06733  -0.00179   0.00000  -0.01217  -0.01257   2.05477
   A41        2.22787  -0.00178   0.00000  -0.00783  -0.00824   2.21964
   A42        1.98784   0.00359   0.00000   0.02081   0.02039   2.00823
   A43        1.94447   0.00330   0.00000   0.01368   0.01373   1.95820
   A44        1.91627  -0.00336   0.00000  -0.02308  -0.02327   1.89300
   A45        1.93091  -0.00168   0.00000  -0.01700  -0.01707   1.91384
   A46        1.88218   0.00136   0.00000   0.02208   0.02219   1.90438
   A47        1.94476  -0.00129   0.00000  -0.00732  -0.00727   1.93749
   A48        1.84170   0.00155   0.00000   0.01197   0.01172   1.85341
    D1        2.64807   0.00158   0.00000   0.05499   0.05480   2.70287
    D2       -0.47172   0.00063   0.00000  -0.00605  -0.00584  -0.47756
    D3        0.64508  -0.00075   0.00000   0.02450   0.02427   0.66935
    D4       -2.47471  -0.00170   0.00000  -0.03654  -0.03636  -2.51108
    D5       -1.48334   0.00090   0.00000   0.04800   0.04782  -1.43553
    D6        1.68005  -0.00005   0.00000  -0.01304  -0.01282   1.66723
    D7       -0.96551  -0.00055   0.00000  -0.01722  -0.01722  -0.98273
    D8        1.11838   0.00104   0.00000   0.00392   0.00374   1.12212
    D9       -3.13906  -0.00005   0.00000  -0.00517  -0.00513   3.13899
   D10        1.04064  -0.00077   0.00000  -0.01194  -0.01186   1.02879
   D11        3.12453   0.00082   0.00000   0.00921   0.00911   3.13364
   D12       -1.13291  -0.00027   0.00000   0.00011   0.00023  -1.13268
   D13       -3.12374  -0.00088   0.00000  -0.02098  -0.02092   3.13853
   D14       -1.03985   0.00071   0.00000   0.00017   0.00005  -1.03981
   D15        0.98589  -0.00038   0.00000  -0.00893  -0.00883   0.97706
   D16        1.05682  -0.00118   0.00000  -0.05461  -0.05490   1.00192
[...]
                 (A) (A) (A) (A) (A) (A) (A) (A) (A) (A) (A) (A)
                 (A) (A) (A) (A) (A) (A) (A) (A) (A) (A) (A) (A)
                 (A) (A) (A) (A) (A) (A) (A) (A) (A) (A) (A) (A)
                 (A) (A) (A) (A) (A) (A) (A) (A) (A) (A) (A) (A)
                 (A) (A) (A) (A) (A) (A) (A) (A) (A) (A) (A) (A)
                 (A) (A) (A) (A) (A) (A) (A) (A) (A) (A) (A) (A)
                 (A) (A) (A) (A) (A) (A) (A) (A) (A) (A) (A) (A)
                 (A) (A) (A) (A) (A) (A) (A) (A) (A) (A) (A) (A)
                 (A) (A) (A) (A) (A) (A) (A) (A) (A) (A) (A) (A)
                 (A) (A) (A) (A) (A) (A) (A) (A) (A) (A) (A) (A)
                 (A) (A) (A) (A) (A) (A) (A) (A) (A) (A) (A) (A)
                 (A) (A) (A) (A) (A) (A) (A) (A) (A) (A) (A) (A)
                 (A) (A) (A) (A) (A) (A) (A) (A) (A) (A) (A) (A)
                 (A) (A) (A) (A) (A) (A) (A) (A) (A) (A) (A) (A)
                 (A) (A) (A) (A) (A) (A) (A) (A) (A)
 The electronic state is 1-A.
 Alpha  occ. eigenvalues --  -11.23028 -11.22456 -11.21863 -11.21726 -11.21721
 Alpha  occ. eigenvalues --  -11.21541 -11.21497 -11.21449 -11.21393 -11.21358
 Alpha  occ. eigenvalues --   -1.10803  -1.08495  -1.01828  -0.98138  -0.93839
 Alpha  occ. eigenvalues --   -0.91936  -0.86954  -0.82861  -0.70567  -0.69489
 Alpha  occ. eigenvalues --   -0.64754  -0.61539  -0.60720  -0.58828  -0.58414
 Alpha  occ. eigenvalues --   -0.56814  -0.55405  -0.54979  -0.53298  -0.52217
 Alpha  occ. eigenvalues --   -0.51714  -0.51214  -0.50653  -0.50166  -0.47383
 Alpha  occ. eigenvalues --   -0.46917  -0.44458  -0.33328  -0.31563
 Alpha virt. eigenvalues --    0.18100   0.19932   0.22053   0.24536   0.24955
 Alpha virt. eigenvalues --    0.27424   0.28601   0.28877   0.30353   0.30694
 Alpha virt. eigenvalues --    0.31966   0.32601   0.32969   0.33726   0.34466
 Alpha virt. eigenvalues --    0.35524   0.36421   0.37370   0.38662   0.39972
 Alpha virt. eigenvalues --    0.40998   0.42095   0.42777   0.44262   0.45477
 Alpha virt. eigenvalues --    0.51938   0.54227   0.61292   0.62632   0.69521
 Alpha virt. eigenvalues --    0.71676   0.71855   0.74127   0.75627   0.76300
 Alpha virt. eigenvalues --    0.77310   0.78587   0.80192   0.80428   0.82510
 Alpha virt. eigenvalues --    0.83060   0.85963   0.89706   0.90634   0.91906
 Alpha virt. eigenvalues --    0.92727   0.94246   0.96733   0.97890   0.99038
 Alpha virt. eigenvalues --    0.99663   1.01316   1.02330   1.04636   1.06421
 Alpha virt. eigenvalues --    1.06946   1.08561   1.08610   1.11036   1.12563
 Alpha virt. eigenvalues --    1.13528   1.14242   1.14315   1.15516   1.15561
 Alpha virt. eigenvalues --    1.15995   1.16443   1.18511   1.18881   1.20423
 Alpha virt. eigenvalues --    1.21361   1.22874   1.23837   1.26678   1.27279
 Alpha virt. eigenvalues --    1.29587   1.40505   1.41229   1.45131   1.46302
 Alpha virt. eigenvalues --    1.47303   1.54539   1.56916   1.57904   1.58162
 Alpha virt. eigenvalues --    1.61580   1.62900   1.65166   1.67986   1.70099
 Alpha virt. eigenvalues --    1.73688   1.82808   1.91105   1.92024   1.96649
 Alpha virt. eigenvalues --    1.98629   2.01394   2.02264   2.04662   2.08570
 Alpha virt. eigenvalues --    2.09659   2.11023   2.11867   2.13286   2.14333
 Alpha virt. eigenvalues --    2.15615   2.17830   2.19386   2.23464   2.28302
 Alpha virt. eigenvalues --    2.29342   2.30634   2.33018   2.35331   2.35655
 Alpha virt. eigenvalues --    2.35947   2.36091   2.39306   2.40246   2.40800
 Alpha virt. eigenvalues --    2.42218   2.43338   2.43738   2.45452   2.46063
 Alpha virt. eigenvalues --    2.47468   2.49490   2.50160   2.50479   2.53353
 Alpha virt. eigenvalues --    2.56171   2.59443   2.61268   2.62977   2.65059
 Alpha virt. eigenvalues --    2.67062   2.68311   2.71449   2.72617   2.74255
 Alpha virt. eigenvalues --    2.76086   2.77474   2.80595   2.82947   2.83712
 Alpha virt. eigenvalues --    2.86556   2.90534   2.92645   2.94406   2.94575
 Alpha virt. eigenvalues --    2.97681   2.98672   3.01242   3.02716   3.05048
 Alpha virt. eigenvalues --    3.06983   3.08131   3.09712   3.12652   3.17075
 Alpha virt. eigenvalues --    3.17580   3.18813   3.20184   3.20611   3.22304
 Alpha virt. eigenvalues --    3.23445   3.25849   3.26685   3.27777   3.38376
 Alpha virt. eigenvalues --    3.40097   3.45764   3.46979   3.56086   3.58279
 Alpha virt. eigenvalues --    3.59222   3.61997   3.68641   3.74872   3.78914
 Alpha virt. eigenvalues --    3.79698   3.81279   3.82681   3.83341   3.84006
 Alpha virt. eigenvalues --    3.84104   3.86511   3.88184   3.89137   3.91421
 Alpha virt. eigenvalues --    3.97579   4.59401   4.62757   4.74521   4.82179
 Alpha virt. eigenvalues --    4.89167   4.92294   4.93230   5.07407   5.10903
 Alpha virt. eigenvalues --    5.17835
          Condensed to atoms (all electrons):
               1          2          3          4          5          6
     1  C    5.003998   0.413411   0.412745   0.339222  -0.057161  -0.000045
     2  H    0.413411   0.576310  -0.028359  -0.039654   0.003215  -0.000012
     3  H    0.412745  -0.028359   0.584867  -0.045647  -0.004621  -0.000557
     4  C    0.339222  -0.039654  -0.045647   4.951262   0.352880  -0.045807
     5  C   -0.057161   0.003215  -0.004621   0.352880   4.891657   0.400489
     6  H   -0.000045  -0.000012  -0.000557  -0.045807   0.400489   0.599593
     7  H   -0.003571  -0.000037   0.002410  -0.041600   0.397676  -0.037733
     8  H    0.003819  -0.000111   0.000114  -0.042642   0.407271  -0.027516
     9  C   -0.046576  -0.001941   0.002347   0.696859  -0.046080  -0.000883
    10  H    0.003280   0.000029  -0.000115  -0.037937  -0.006573   0.000143
    11  C   -0.007739  -0.002699   0.000152  -0.049997   0.003357  -0.000102
    12  H   -0.002166  -0.001508   0.000038  -0.000577   0.000102  -0.000002
    13  H    0.000295  -0.000067  -0.000013  -0.000357  -0.000097   0.000016
    14  H    0.000167   0.000160   0.000018  -0.000541  -0.000105  -0.000004
    15  C   -0.000102  -0.000001  -0.000045   0.000002  -0.000000  -0.000000
    16  H   -0.000003   0.000002  -0.000002   0.000000  -0.000000  -0.000000
    17  H    0.000024  -0.000001  -0.000008  -0.000000   0.000000   0.000000
    18  H   -0.000005   0.000000   0.000002   0.000000  -0.000000   0.000000
    19  C   -0.004098   0.000622   0.001256  -0.000004   0.000007   0.000021
    20  C    0.000549  -0.000016   0.000191  -0.000019  -0.000025  -0.000043
    21  H   -0.000058  -0.000011   0.000094  -0.000061   0.000096   0.000361
    22  H   -0.000041   0.000000   0.000017   0.000001  -0.000000  -0.000000
    23  H    0.000120  -0.000001  -0.000099  -0.000004   0.000001  -0.000001
    24  C   -0.062090  -0.001230   0.000057   0.006210  -0.000074  -0.000104
    25  H   -0.000091   0.001049   0.000171  -0.000105  -0.000002  -0.000000
    26  C    0.331128  -0.042384  -0.045729  -0.055684  -0.001011   0.000669
    27  H   -0.046717  -0.002896   0.004692  -0.001441   0.000280  -0.000003
    28  H   -0.042601   0.004316  -0.002340  -0.002245  -0.000436  -0.000466
               7          8          9         10         11         12
     1  C   -0.003571   0.003819  -0.046576   0.003280  -0.007739  -0.002166
     2  H   -0.000037  -0.000111  -0.001941   0.000029  -0.002699  -0.001508
     3  H    0.002410   0.000114   0.002347  -0.000115   0.000152   0.000038
     4  C   -0.041600  -0.042642   0.696859  -0.037937  -0.049997  -0.000577
     5  C    0.397676   0.407271  -0.046080  -0.006573   0.003357   0.000102
     6  H   -0.037733  -0.027516  -0.000883   0.000143  -0.000102  -0.000002
     7  H    0.591603  -0.026708  -0.000465   0.000218  -0.000104   0.000001
     8  H   -0.026708   0.568320  -0.002982   0.002347   0.000133   0.000005
     9  C   -0.000465  -0.002982   4.938271   0.404337   0.340912  -0.043875
    10  H    0.000218   0.002347   0.404337   0.559262  -0.041317   0.003330
    11  C   -0.000104   0.000133   0.340912  -0.041317   4.898015   0.409145
    12  H    0.000001   0.000005  -0.043875   0.003330   0.409145   0.577276
    13  H   -0.000004  -0.000005  -0.041711  -0.001238   0.401889  -0.029082
    14  H    0.000017  -0.000006  -0.041774  -0.001163   0.401438  -0.027817
    15  C    0.000000   0.000000  -0.000000   0.000000   0.000000  -0.000000
    16  H   -0.000000  -0.000000  -0.000000   0.000000  -0.000000   0.000000
    17  H   -0.000000  -0.000000   0.000000  -0.000000  -0.000000  -0.000000
    18  H    0.000000   0.000000  -0.000000   0.000000  -0.000000   0.000000
    19  C   -0.000001  -0.000000  -0.000003   0.000000   0.000000   0.000001
    20  C   -0.000001   0.000000  -0.000000  -0.000000  -0.000000   0.000000
    21  H   -0.000000  -0.000001  -0.000001   0.000000  -0.000000   0.000000
    22  H    0.000000   0.000000   0.000000   0.000000   0.000000   0.000000
    23  H    0.000000  -0.000000   0.000000  -0.000000   0.000000  -0.000000
    24  C    0.000003   0.000002   0.000036   0.000002  -0.000027   0.000064
    25  H    0.000000   0.000000   0.000007  -0.000000  -0.000002   0.000025
    26  C    0.000075  -0.000108  -0.004455  -0.000120   0.000509  -0.000554
    27  H    0.000005  -0.000004   0.001236  -0.000038   0.000051   0.000016
    28  H    0.000058  -0.000040   0.000648   0.000001  -0.000030  -0.000004
              13         14         15         16         17         18
     1  C    0.000295   0.000167  -0.000102  -0.000003   0.000024  -0.000005
     2  H   -0.000067   0.000160  -0.000001   0.000002  -0.000001   0.000000
     3  H   -0.000013   0.000018  -0.000045  -0.000002  -0.000008   0.000002
     4  C   -0.000357  -0.000541   0.000002   0.000000  -0.000000   0.000000
     5  C   -0.000097  -0.000105  -0.000000  -0.000000   0.000000  -0.000000
     6  H    0.000016  -0.000004  -0.000000  -0.000000   0.000000   0.000000
     7  H   -0.000004   0.000017   0.000000  -0.000000  -0.000000   0.000000
     8  H   -0.000005  -0.000006   0.000000  -0.000000  -0.000000   0.000000
     9  C   -0.041711  -0.041774  -0.000000  -0.000000   0.000000  -0.000000
    10  H   -0.001238  -0.001163   0.000000   0.000000  -0.000000   0.000000
    11  C    0.401889   0.401438   0.000000  -0.000000  -0.000000  -0.000000
    12  H   -0.029082  -0.027817  -0.000000   0.000000  -0.000000   0.000000
    13  H    0.585671  -0.035520  -0.000000  -0.000000   0.000000  -0.000000
    14  H   -0.035520   0.584890   0.000000  -0.000000  -0.000000   0.000000
    15  C   -0.000000   0.000000   4.900552   0.406165   0.398175   0.398829
    16  H   -0.000000  -0.000000   0.406165   0.565965  -0.026667  -0.026546
    17  H    0.000000  -0.000000   0.398175  -0.026667   0.594540  -0.037823
    18  H   -0.000000   0.000000   0.398829  -0.026546  -0.037823   0.593696
    19  C    0.000000  -0.000000   0.353472  -0.041665  -0.043823  -0.044307
    20  C   -0.000000   0.000000  -0.065053   0.003789  -0.001990  -0.001177
    21  H    0.000000  -0.000000   0.003758  -0.000115  -0.000068  -0.000032
    22  H   -0.000000   0.000000  -0.002204  -0.000055  -0.000448   0.002752
    23  H    0.000000  -0.000000  -0.002670  -0.000029   0.002769  -0.000486
    24  C   -0.000007   0.000002  -0.044228  -0.002577  -0.000470  -0.001279
    25  H   -0.000000  -0.000000  -0.006998   0.002368   0.000180   0.000188
    26  C    0.000149  -0.000037   0.003136   0.000144  -0.000071  -0.000128
    27  H   -0.000081   0.000025  -0.000091  -0.000009  -0.000002   0.000009
    28  H   -0.000000  -0.000000   0.000050   0.000007  -0.000004   0.000006
              19         20         21         22         23         24
     1  C   -0.004098   0.000549  -0.000058  -0.000041   0.000120  -0.062090
     2  H    0.000622  -0.000016  -0.000011   0.000000  -0.000001  -0.001230
     3  H    0.001256   0.000191   0.000094   0.000017  -0.000099   0.000057
     4  C   -0.000004  -0.000019  -0.000061   0.000001  -0.000004   0.006210
     5  C    0.000007  -0.000025   0.000096  -0.000000   0.000001  -0.000074
     6  H    0.000021  -0.000043   0.000361  -0.000000  -0.000001  -0.000104
     7  H   -0.000001  -0.000001  -0.000000   0.000000   0.000000   0.000003
     8  H   -0.000000   0.000000  -0.000001   0.000000  -0.000000   0.000002
     9  C   -0.000003  -0.000000  -0.000001   0.000000   0.000000   0.000036
    10  H    0.000000  -0.000000   0.000000   0.000000  -0.000000   0.000002
    11  C    0.000000  -0.000000  -0.000000   0.000000   0.000000  -0.000027
    12  H    0.000001   0.000000   0.000000   0.000000  -0.000000   0.000064
    13  H    0.000000  -0.000000   0.000000  -0.000000   0.000000  -0.000007
    14  H   -0.000000   0.000000  -0.000000   0.000000  -0.000000   0.000002
    15  C    0.353472  -0.065053   0.003758  -0.002204  -0.002670  -0.044228
    16  H   -0.041665   0.003789  -0.000115  -0.000055  -0.000029  -0.002577
    17  H   -0.043823  -0.001990  -0.000068  -0.000448   0.002769  -0.000470
    18  H   -0.044307  -0.001177  -0.000032   0.002752  -0.000486  -0.001279
    19  C    4.915064   0.350683  -0.037727  -0.043642  -0.043358   0.696285
    20  C    0.350683   4.904567   0.406928   0.400306   0.401034  -0.044156
    21  H   -0.037727   0.406928   0.570628  -0.026774  -0.028092  -0.003150
    22  H   -0.043642   0.400306  -0.026774   0.585123  -0.035758  -0.000378
    23  H   -0.043358   0.401034  -0.028092  -0.035758   0.586876  -0.000024
    24  C    0.696285  -0.044156  -0.003150  -0.000378  -0.000024   4.960934
    25  H   -0.038332   0.003541   0.000051  -0.000120  -0.000122   0.403960
    26  C   -0.049354  -0.007949  -0.002567   0.000140   0.000348   0.340992
    27  H    0.001446   0.000178   0.000062   0.000024  -0.000014  -0.041006
    28  H    0.000417  -0.002567  -0.001997   0.000086  -0.000063  -0.044503
              25         26         27         28
     1  C   -0.000091   0.331128  -0.046717  -0.042601
     2  H    0.001049  -0.042384  -0.002896   0.004316
     3  H    0.000171  -0.045729   0.004692  -0.002340
     4  C   -0.000105  -0.055684  -0.001441  -0.002245
     5  C   -0.000002  -0.001011   0.000280  -0.000436
     6  H   -0.000000   0.000669  -0.000003  -0.000466
     7  H    0.000000   0.000075   0.000005   0.000058
     8  H    0.000000  -0.000108  -0.000004  -0.000040
     9  C    0.000007  -0.004455   0.001236   0.000648
    10  H   -0.000000  -0.000120  -0.000038   0.000001
    11  C   -0.000002   0.000509   0.000051  -0.000030
    12  H    0.000025  -0.000554   0.000016  -0.000004
    13  H   -0.000000   0.000149  -0.000081  -0.000000
    14  H   -0.000000  -0.000037   0.000025  -0.000000
    15  C   -0.006998   0.003136  -0.000091   0.000050
    16  H    0.002368   0.000144  -0.000009   0.000007
    17  H    0.000180  -0.000071  -0.000002  -0.000004
    18  H    0.000188  -0.000128   0.000009   0.000006
    19  C   -0.038332  -0.049354   0.001446   0.000417
    20  C    0.003541  -0.007949   0.000178  -0.002567
    21  H    0.000051  -0.002567   0.000062  -0.001997
    22  H   -0.000120   0.000140   0.000024   0.000086
    23  H   -0.000122   0.000348  -0.000014  -0.000063
    24  C    0.403960   0.340992  -0.041006  -0.044503
    25  H    0.558056  -0.040061  -0.003353   0.003267
    26  C   -0.040061   4.977838   0.413229   0.416251
    27  H   -0.003353   0.413229   0.579538  -0.028540
    28  H    0.003267   0.416251  -0.028540   0.582598
 Mulliken charges:
               1
     1  C   -0.235696
     2  H    0.121814
     3  H    0.118365
     4  C    0.017883
     5  C   -0.340845
     6  H    0.111985
     7  H    0.118156
     8  H    0.118112
     9  C   -0.153908
    10  H    0.115552
    11  C   -0.353585
    12  H    0.115581
    13  H    0.120163
    14  H    0.120250
    15  C   -0.342746
    16  H    0.119226
    17  H    0.115688
    18  H    0.116299
    19  C    0.027041
    20  C   -0.348771
    21  H    0.118676
    22  H    0.120971
    23  H    0.119572
    24  C   -0.163245
    25  H    0.116321
    26  C   -0.234395
    27  H    0.123405
    28  H    0.118132
 Sum of Mulliken charges =  -0.00000
 Mulliken charges with hydrogens summed into heavy atoms:
               1
     1  C    0.004483
     4  C    0.017883
     5  C    0.007409
     9  C   -0.038356
    11  C    0.002408
    15  C    0.008468
    19  C    0.027041
    20  C    0.010448
    24  C   -0.046924
    26  C    0.007142
 Electronic spatial extent (au):  <R**2>=           2498.6178
 Charge=              0.0000 electrons
 Dipole moment (field-independent basis, Debye):
    X=              0.3626    Y=              0.1699    Z=              0.0498  Tot=              0.4035
 Quadrupole moment (field-independent basis, Debye-Ang):
   XX=            -63.7582   YY=            -63.7112   ZZ=            -67.3994
   XY=              1.0617   XZ=              1.2177   YZ=             -0.3674
 Traceless Quadrupole moment (field-independent basis, Debye-Ang):
   XX=              1.1981   YY=              1.2451   ZZ=             -2.4431
   XY=              1.0617   XZ=              1.2177   YZ=             -0.3674
 Octapole moment (field-independent basis, Debye-Ang**2):
  XXX=              2.8325  YYY=             -2.8562  ZZZ=              0.8774  XYY=             -0.7382
  XXY=              1.7310  XXZ=             -2.8067  XZZ=              1.5462  YZZ=              1.4376
  YYZ=              0.7862  XYZ=             -0.4940
 Hexadecapole moment (field-independent basis, Debye-Ang**3):
 XXXX=          -2633.5355 YYYY=           -638.9544 ZZZZ=           -166.0442 XXXY=             10.5035
 XXXZ=             13.5606 YYYX=             -7.0821 YYYZ=             -1.6739 ZZZX=              4.0398
 ZZZY=              2.3776 XXYY=           -550.6721 XXZZ=           -483.2678 YYZZ=           -131.1157
 XXYZ=             -4.5756 YYXZ=              2.5313 ZZXY=              7.7339
 N-N= 5.156964469421D+02 E-N=-1.936106260306D+03  KE= 3.887456777871D+02
 No NMR shielding tensors so no spin-rotation constants.
 Leave Link  601 at Fri Sep 17 16:44:45 2021, MaxMem=   524288000 cpu:               0.3 elap:               0.6
 (Enter /opt/gaussian/g16_legacy/l9999.exe)
 1\1\GINC-TRUENO90\FOpt\RMP2-FC\6-31G(d,p)\C10H18\JRAMOS\17-Sep-2021\0\
 \#p opt mp2/6-31g(d,p)\\Conformer number 2879. Energy MM = 23.287 kcal
 /mol\\0,1\C,0.6916910453,0.1952443978,0.6646503683\H,0.8153436305,1.24
 1352949,0.9500727214\H,0.0350634605,-0.2516114854,1.4162994504\C,2.012
 5187337,-0.532173861,0.65595858\C,1.9385821353,-2.0036132101,0.9623691
 656\H,1.2432803061,-2.5101142782,0.2890765725\H,1.5745656553,-2.170587
 9723,1.9784758069\H,2.9120358104,-2.4825082074,0.8646352512\C,3.185838
 8387,0.0522306022,0.3500758143\H,4.0741663928,-0.5734497213,0.34859043
 91\C,3.41406685,1.491964597,0.0028007373\H,2.4933306829,2.0705873844,0
 .0071562736\H,3.8577976439,1.5825649396,-0.9903387954\H,4.1086511709,1
 .9573652917,0.7046500513\C,-3.800170619,1.1155653484,-0.4892395954\H,-
 3.5669705669,2.1726706478,-0.6070771855\H,-4.3354283234,0.98561401,0.4
 540512744\H,-4.488771909,0.8259553152,-1.2862617839\C,-2.5578987166,0.
 2686129029,-0.5219133539\C,-2.8001725454,-1.2075938747,-0.3703558288\H
 ,-1.8823854986,-1.7898626752,-0.3573874287\H,-3.4284865719,-1.57807154
 36,-1.1834056583\H,-3.3373286474,-1.4066240744,0.5594115781\C,-1.34390
 48837,0.8286520431,-0.6808467183\H,-1.3001676372,1.9122497365,-0.75833
 22128\C,-0.017967984,0.1280807801,-0.7014113896\H,0.6304038451,0.59315
 09827,-1.4485248298\H,-0.1276822984,-0.9154510247,-0.9993793039\\Versi
 on=EM64L-G16RevA.03\State=1-A\HF=-389.1568792\MP2=-390.573553\RMSD=2.4
 30e-09\RMSF=3.875e-06\Dipole=-0.109132,-0.0346104,0.0064045\PG=C01 [X(
 C10H18)]\\@


 FRICTION IS A DRAG,
 AND ENTROPY AIN'T WHAT IT USED TO BE.
 Job cpu time:       0 days  1 hours 51 minutes 13.0 seconds.
 Elapsed time:       0 days  1 hours 51 minutes 25.2 seconds.
 File lengths (MBytes):  RWF=     32 Int=      0 D2E=      0 Chk=      7 Scr=      1
 Normal termination of Gaussian 16 at Fri Sep 17 16:44:45 2021.
