 Entering Gaussian System, Link 0=/opt/gaussian/g16_legacy/g16
 Input=01-IsoP_3244_gaussian.com
 Output=01-IsoP_3244_gaussian.log
 Initial command:
 /opt/gaussian/g16_legacy/l1.exe "/scratch-local/jramos/2661393/Gau-16731.inp" -scrdir="/scratch-local/jramos/2661393/"
 Entering Link 1 = /opt/gaussian/g16_legacy/l1.exe PID=     16732.
  
 Copyright (c) 1988,1990,1992,1993,1995,1998,2003,2009,2016,
            Gaussian, Inc.  All Rights Reserved.
  
 This is part of the Gaussian(R) 16 program.  It is based on
 the Gaussian(R) 09 system (copyright 2009, Gaussian, Inc.),
 the Gaussian(R) 03 system (copyright 2003, Gaussian, Inc.),
 the Gaussian(R) 98 system (copyright 1998, Gaussian, Inc.),
 the Gaussian(R) 94 system (copyright 1995, Gaussian, Inc.),
 the Gaussian 92(TM) system (copyright 1992, Gaussian, Inc.),
 the Gaussian 90(TM) system (copyright 1990, Gaussian, Inc.),
 the Gaussian 88(TM) system (copyright 1988, Gaussian, Inc.),
 the Gaussian 86(TM) system (copyright 1986, Carnegie Mellon
 University), and the Gaussian 82(TM) system (copyright 1983,
 Carnegie Mellon University). Gaussian is a federally registered
 trademark of Gaussian, Inc.
  
 This software contains proprietary and confidential information,
 including trade secrets, belonging to Gaussian, Inc.
  
 This software is provided under written license and may be
 used, copied, transmitted, or stored only in accord with that
 written license.
  
 The following legend is applicable only to US Government
 contracts under FAR:
  
                    RESTRICTED RIGHTS LEGEND
  
 Use, reproduction and disclosure by the US Government is
 subject to restrictions as set forth in subparagraphs (a)
 and (c) of the Commercial Computer Software - Restricted
 Rights clause in FAR 52.227-19.
  
 Gaussian, Inc.
 340 Quinnipiac St., Bldg. 40, Wallingford CT 06492
  
  
 ---------------------------------------------------------------
 Warning -- This program may not be used in any manner that
 competes with the business of Gaussian, Inc. or will provide
 assistance to any competitor of Gaussian, Inc.  The licensee
 of this program is prohibited from giving any competitor of
 Gaussian, Inc. access to this program.  By using this program,
 the user acknowledges that Gaussian, Inc. is engaged in the
 business of creating and licensing software in the field of
 computational chemistry and represents and warrants to the
 licensee that it is not a competitor of Gaussian, Inc. and that
 it will not use this program in any manner prohibited above.
 ---------------------------------------------------------------
  

 Cite this work as:
 Gaussian 16, Revision A.03,
 M. J. Frisch, G. W. Trucks, H. B. Schlegel, G. E. Scuseria, 
 M. A. Robb, J. R. Cheeseman, G. Scalmani, V. Barone, 
 G. A. Petersson, H. Nakatsuji, X. Li, M. Caricato, A. V. Marenich, 
 J. Bloino, B. G. Janesko, R. Gomperts, B. Mennucci, H. P. Hratchian, 
 J. V. Ortiz, A. F. Izmaylov, J. L. Sonnenberg, D. Williams-Young, 
 F. Ding, F. Lipparini, F. Egidi, J. Goings, B. Peng, A. Petrone, 
 T. Henderson, D. Ranasinghe, V. G. Zakrzewski, J. Gao, N. Rega, 
 G. Zheng, W. Liang, M. Hada, M. Ehara, K. Toyota, R. Fukuda, 
 J. Hasegawa, M. Ishida, T. Nakajima, Y. Honda, O. Kitao, H. Nakai, 
 T. Vreven, K. Throssell, J. A. Montgomery, Jr., J. E. Peralta, 
 F. Ogliaro, M. J. Bearpark, J. J. Heyd, E. N. Brothers, K. N. Kudin, 
 V. N. Staroverov, T. A. Keith, R. Kobayashi, J. Normand, 
 K. Raghavachari, A. P. Rendell, J. C. Burant, S. S. Iyengar, 
 J. Tomasi, M. Cossi, J. M. Millam, M. Klene, C. Adamo, R. Cammi, 
 J. W. Ochterski, R. L. Martin, K. Morokuma, O. Farkas, 
 J. B. Foresman, and D. J. Fox, Gaussian, Inc., Wallingford CT, 2016.
 
 ******************************************
 Gaussian 16:  EM64L-G16RevA.03 25-Dec-2016
                17-Sep-2021 
 ******************************************
 %chk=01-IsoP_3244_gaussian.chk
 %nproc=1
 Will use up to    1 processors via shared memory.
 %mem=4000Mb
 ---------------------
 #p opt mp2/6-31g(d,p)
 ---------------------
 1/18=20,19=15,38=1/1,3;
 2/9=110,12=2,17=6,18=5,40=1/2;
 3/5=1,6=6,7=101,11=9,25=1,30=1,71=1/1,2,3;
 4//1;
 5/5=2,38=5/2;
 8/6=4,10=2/1;
 9/15=2,16=-3/6;
 10/5=1/2;
 6/7=2,8=2,9=2,10=2/1;
 7/12=2/1,2,3,16;
 1/18=20,19=15/3(2);
 2/9=110/2;
 99//99;
 2/9=110/2;
 3/5=1,6=6,7=101,11=9,25=1,30=1,71=1/1,2,3;
 4/5=5,16=3,69=1/1;
 5/5=2,38=5/2;
 8/6=4,10=2/1;
 9/15=2,16=-3/6;
 10/5=1/2;
 7/12=2/1,2,3,16;
 1/18=20,19=15/3(-8);
 2/9=110/2;
 6/7=2,8=2,9=2,10=2/1;
 99//99;
 Leave Link    1 at Fri Sep 17 15:09:38 2021, MaxMem=   524288000 cpu:               0.0 elap:               0.1
 (Enter /opt/gaussian/g16_legacy/l101.exe)
 --------------------------------------------------
 Conformer number 3244. Energy MM = 23.242 kcal/mol
 --------------------------------------------------
 Symbolic Z-matrix:
 Charge =  0 Multiplicity = 1
 C                    -0.7617    0.2327   -0.8085 
 H                    -0.615     1.1668   -0.2531 
 H                    -0.6178    0.5064   -1.8625 
 C                    -2.1738   -0.2825   -0.6208 
 C                    -2.7145   -1.0963   -1.7684 
 H                    -2.72     -0.5003   -2.6869 
 H                    -2.0961   -1.9843   -1.9327 
 H                    -3.7398   -1.4366   -1.5888 
 C                    -2.9357   -0.0363    0.4634 
 H                    -3.9493   -0.4355    0.4898 
 C                    -2.5512    0.7245    1.6928 
 H                    -1.4918    0.9879    1.7288 
 H                    -3.1393    1.6448    1.7594 
 H                    -2.7661    0.1181    2.5786 
 C                     3.92      0.6536   -0.0283 
 H                     4.1184    0.5421   -1.0995 
 H                     4.0515    1.7105    0.2258 
 H                     4.6725    0.0691    0.5112 
 C                     2.5357    0.1941    0.3484 
 C                     2.2194    0.3199    1.8133 
 H                     1.1743    0.1098    2.0516 
 H                     2.843    -0.3682    2.3932 
 H                     2.4228    1.3405    2.1552 
 C                     1.6871   -0.2705   -0.5895 
 H                     2.0232   -0.2974   -1.6261 
 C                     0.2913   -0.7966   -0.3858 
 H                     0.187    -1.7097   -0.9855 
 H                     0.126    -1.1065    0.6513 
 
 ITRead=  0  0  0  0  0  0  0  0  0  0  0  0  0  0  0  0  0  0  0  0
 ITRead=  0  0  0  0  0  0  0  0
 MicOpt= -1 -1 -1 -1 -1 -1 -1 -1 -1 -1 -1 -1 -1 -1 -1 -1 -1 -1 -1 -1
 MicOpt= -1 -1 -1 -1 -1 -1 -1 -1
 NAtoms=     28 NQM=       28 NQMF=       0 NMMI=      0 NMMIF=      0
                NMic=       0 NMicF=      0.
                    Isotopes and Nuclear Properties:
 (Nuclear quadrupole moments (NQMom) in fm**2, nuclear magnetic moments (NMagM)
  in nuclear magnetons)

  Atom         1           2           3           4           5           6           7           8           9          10
 IAtWgt=          12           1           1          12          12           1           1           1          12           1
 AtmWgt=  12.0000000   1.0078250   1.0078250  12.0000000  12.0000000   1.0078250   1.0078250   1.0078250  12.0000000   1.0078250
 NucSpn=           0           1           1           0           0           1           1           1           0           1
 AtZEff=  -0.0000000  -0.0000000  -0.0000000  -0.0000000  -0.0000000  -0.0000000  -0.0000000  -0.0000000  -0.0000000  -0.0000000
 NQMom=    0.0000000   0.0000000   0.0000000   0.0000000   0.0000000   0.0000000   0.0000000   0.0000000   0.0000000   0.0000000
 NMagM=    0.0000000   2.7928460   2.7928460   0.0000000   0.0000000   2.7928460   2.7928460   2.7928460   0.0000000   2.7928460
 AtZNuc=   6.0000000   1.0000000   1.0000000   6.0000000   6.0000000   1.0000000   1.0000000   1.0000000   6.0000000   1.0000000

  Atom        11          12          13          14          15          16          17          18          19          20
 IAtWgt=          12           1           1           1          12           1           1           1          12          12
 AtmWgt=  12.0000000   1.0078250   1.0078250   1.0078250  12.0000000   1.0078250   1.0078250   1.0078250  12.0000000  12.0000000
 NucSpn=           0           1           1           1           0           1           1           1           0           0
 AtZEff=  -0.0000000  -0.0000000  -0.0000000  -0.0000000  -0.0000000  -0.0000000  -0.0000000  -0.0000000  -0.0000000  -0.0000000
 NQMom=    0.0000000   0.0000000   0.0000000   0.0000000   0.0000000   0.0000000   0.0000000   0.0000000   0.0000000   0.0000000
 NMagM=    0.0000000   2.7928460   2.7928460   2.7928460   0.0000000   2.7928460   2.7928460   2.7928460   0.0000000   0.0000000
 AtZNuc=   6.0000000   1.0000000   1.0000000   1.0000000   6.0000000   1.0000000   1.0000000   1.0000000   6.0000000   6.0000000

  Atom        21          22          23          24          25          26          27          28
 IAtWgt=           1           1           1          12           1          12           1           1
 AtmWgt=   1.0078250   1.0078250   1.0078250  12.0000000   1.0078250  12.0000000   1.0078250   1.0078250
 NucSpn=           1           1           1           0           1           0           1           1
 AtZEff=  -0.0000000  -0.0000000  -0.0000000  -0.0000000  -0.0000000  -0.0000000  -0.0000000  -0.0000000
 NQMom=    0.0000000   0.0000000   0.0000000   0.0000000   0.0000000   0.0000000   0.0000000   0.0000000
 NMagM=    2.7928460   2.7928460   2.7928460   0.0000000   2.7928460   0.0000000   2.7928460   2.7928460
 AtZNuc=   1.0000000   1.0000000   1.0000000   6.0000000   1.0000000   6.0000000   1.0000000   1.0000000
 Leave Link  101 at Fri Sep 17 15:09:39 2021, MaxMem=   524288000 cpu:               0.1 elap:               0.1
 (Enter /opt/gaussian/g16_legacy/l103.exe)

 GradGradGradGradGradGradGradGradGradGradGradGradGradGradGradGradGradGrad
 Berny optimization.
 Initialization pass.
                           ----------------------------
                           !    Initial Parameters    !
                           ! (Angstroms and Degrees)  !
 --------------------------                            --------------------------
 ! Name  Definition              Value          Derivative Info.                !
 --------------------------------------------------------------------------------
 ! R1    R(1,2)                  1.0966         estimate D2E/DX2                !
 ! R2    R(1,3)                  1.0984         estimate D2E/DX2                !
 ! R3    R(1,4)                  1.5148         estimate D2E/DX2                !
 ! R4    R(1,26)                 1.532          estimate D2E/DX2                !
 ! R5    R(4,5)                  1.5072         estimate D2E/DX2                !
 ! R6    R(4,9)                  1.3478         estimate D2E/DX2                !
 ! R7    R(5,6)                  1.0949         estimate D2E/DX2                !
 ! R8    R(5,7)                  1.0945         estimate D2E/DX2                !
 ! R9    R(5,8)                  1.0951         estimate D2E/DX2                !
 ! R10   R(9,10)                 1.0897         estimate D2E/DX2                !
 ! R11   R(9,11)                 1.496          estimate D2E/DX2                !
 ! R12   R(11,12)                1.0922         estimate D2E/DX2                !
 ! R13   R(11,13)                1.0942         estimate D2E/DX2                !
 ! R14   R(11,14)                1.0948         estimate D2E/DX2                !
 ! R15   R(15,16)                1.0951         estimate D2E/DX2                !
 ! R16   R(15,17)                1.0949         estimate D2E/DX2                !
 ! R17   R(15,18)                1.095          estimate D2E/DX2                !
 ! R18   R(15,19)                1.5064         estimate D2E/DX2                !
 ! R19   R(19,20)                1.5039         estimate D2E/DX2                !
 ! R20   R(19,24)                1.3475         estimate D2E/DX2                !
 ! R21   R(20,21)                1.0923         estimate D2E/DX2                !
 ! R22   R(20,22)                1.0948         estimate D2E/DX2                !
 ! R23   R(20,23)                1.0954         estimate D2E/DX2                !
 ! R24   R(24,25)                1.0901         estimate D2E/DX2                !
 ! R25   R(24,26)                1.5055         estimate D2E/DX2                !
 ! R26   R(26,27)                1.0974         estimate D2E/DX2                !
 ! R27   R(26,28)                1.095          estimate D2E/DX2                !
 ! A1    A(2,1,3)              104.8455         estimate D2E/DX2                !
 ! A2    A(2,1,4)              110.5886         estimate D2E/DX2                !
 ! A3    A(2,1,26)             109.9146         estimate D2E/DX2                !
 ! A4    A(3,1,4)              109.012          estimate D2E/DX2                !
 ! A5    A(3,1,26)             110.0066         estimate D2E/DX2                !
 ! A6    A(4,1,26)             112.2123         estimate D2E/DX2                !
 ! A7    A(1,4,5)              115.0692         estimate D2E/DX2                !
 ! A8    A(1,4,9)              124.3677         estimate D2E/DX2                !
 ! A9    A(5,4,9)              120.5527         estimate D2E/DX2                !
 ! A10   A(4,5,6)              110.2808         estimate D2E/DX2                !
 ! A11   A(4,5,7)              110.4674         estimate D2E/DX2                !
 ! A12   A(4,5,8)              112.2584         estimate D2E/DX2                !
 ! A13   A(6,5,7)              108.5744         estimate D2E/DX2                !
 ! A14   A(6,5,8)              107.5786         estimate D2E/DX2                !
 ! A15   A(7,5,8)              107.5468         estimate D2E/DX2                !
 ! A16   A(4,9,10)             118.5797         estimate D2E/DX2                !
 ! A17   A(4,9,11)             127.4926         estimate D2E/DX2                !
 ! A18   A(10,9,11)            113.9199         estimate D2E/DX2                !
 ! A19   A(9,11,12)            113.5163         estimate D2E/DX2                !
 ! A20   A(9,11,13)            109.8531         estimate D2E/DX2                !
 ! A21   A(9,11,14)            109.4373         estimate D2E/DX2                !
 ! A22   A(12,11,13)           108.45           estimate D2E/DX2                !
 ! A23   A(12,11,14)           107.2955         estimate D2E/DX2                !
 ! A24   A(13,11,14)           108.1269         estimate D2E/DX2                !
 ! A25   A(16,15,17)           107.6692         estimate D2E/DX2                !
 ! A26   A(16,15,18)           107.6436         estimate D2E/DX2                !
 ! A27   A(16,15,19)           112.3353         estimate D2E/DX2                !
 ! A28   A(17,15,18)           108.5651         estimate D2E/DX2                !
 ! A29   A(17,15,19)           110.2892         estimate D2E/DX2                !
 ! A30   A(18,15,19)           110.2115         estimate D2E/DX2                !
 ! A31   A(15,19,20)           114.2879         estimate D2E/DX2                !
 ! A32   A(15,19,24)           120.6531         estimate D2E/DX2                !
 ! A33   A(20,19,24)           125.0561         estimate D2E/DX2                !
 ! A34   A(19,20,21)           113.4303         estimate D2E/DX2                !
 ! A35   A(19,20,22)           110.094          estimate D2E/DX2                !
 ! A36   A(19,20,23)           110.0541         estimate D2E/DX2                !
 ! A37   A(21,20,22)           107.9703         estimate D2E/DX2                !
 ! A38   A(21,20,23)           106.7847         estimate D2E/DX2                !
 ! A39   A(22,20,23)           108.3305         estimate D2E/DX2                !
 ! A40   A(19,24,25)           118.4405         estimate D2E/DX2                !
 ! A41   A(19,24,26)           127.6041         estimate D2E/DX2                !
 ! A42   A(25,24,26)           113.9482         estimate D2E/DX2                !
 ! A43   A(1,26,24)            111.4163         estimate D2E/DX2                !
 ! A44   A(1,26,27)            110.0557         estimate D2E/DX2                !
 ! A45   A(1,26,28)            110.3486         estimate D2E/DX2                !
 ! A46   A(24,26,27)           107.7548         estimate D2E/DX2                !
 ! A47   A(24,26,28)           111.532          estimate D2E/DX2                !
 ! A48   A(27,26,28)           105.5309         estimate D2E/DX2                !
 ! D1    D(2,1,4,5)            151.4119         estimate D2E/DX2                !
 ! D2    D(2,1,4,9)            -27.4199         estimate D2E/DX2                !
 ! D3    D(3,1,4,5)             36.6455         estimate D2E/DX2                !
 ! D4    D(3,1,4,9)           -142.1863         estimate D2E/DX2                !
 ! D5    D(26,1,4,5)           -85.4664         estimate D2E/DX2                !
 ! D6    D(26,1,4,9)            95.7018         estimate D2E/DX2                !
 ! D7    D(2,1,26,24)          -56.9352         estimate D2E/DX2                !
 ! D8    D(2,1,26,27)         -176.4005         estimate D2E/DX2                !
 ! D9    D(2,1,26,28)           67.5331         estimate D2E/DX2                !
 ! D10   D(3,1,26,24)           58.0206         estimate D2E/DX2                !
 ! D11   D(3,1,26,27)          -61.4447         estimate D2E/DX2                !
 ! D12   D(3,1,26,28)         -177.5111         estimate D2E/DX2                !
 ! D13   D(4,1,26,24)          179.5647         estimate D2E/DX2                !
 ! D14   D(4,1,26,27)           60.0994         estimate D2E/DX2                !
 ! D15   D(4,1,26,28)          -55.967          estimate D2E/DX2                !
 ! D16   D(1,4,5,6)            -59.4977         estimate D2E/DX2                !
 ! D17   D(1,4,5,7)             60.5282         estimate D2E/DX2                !
 ! D18   D(1,4,5,8)           -179.4408         estimate D2E/DX2                !
 ! D19   D(9,4,5,6)            119.3825         estimate D2E/DX2                !
 ! D20   D(9,4,5,7)           -120.5915         estimate D2E/DX2                !
 ! D21   D(9,4,5,8)             -0.5605         estimate D2E/DX2                !
 ! D22   D(1,4,9,10)           178.6004         estimate D2E/DX2                !
 ! D23   D(1,4,9,11)            -2.4797         estimate D2E/DX2                !
 ! D24   D(5,4,9,10)            -0.1709         estimate D2E/DX2                !
 ! D25   D(5,4,9,11)           178.749          estimate D2E/DX2                !
 ! D26   D(4,9,11,12)           -7.926          estimate D2E/DX2                !
 ! D27   D(4,9,11,13)          113.6796         estimate D2E/DX2                !
 ! D28   D(4,9,11,14)         -127.753          estimate D2E/DX2                !
 ! D29   D(10,9,11,12)         171.0363         estimate D2E/DX2                !
 ! D30   D(10,9,11,13)         -67.358          estimate D2E/DX2                !
 ! D31   D(10,9,11,14)          51.2094         estimate D2E/DX2                !
 ! D32   D(16,15,19,20)        179.6292         estimate D2E/DX2                !
 ! D33   D(16,15,19,24)         -0.9521         estimate D2E/DX2                !
 ! D34   D(17,15,19,20)        -60.2559         estimate D2E/DX2                !
 ! D35   D(17,15,19,24)        119.1629         estimate D2E/DX2                !
 ! D36   D(18,15,19,20)         59.6002         estimate D2E/DX2                !
 ! D37   D(18,15,19,24)       -120.981          estimate D2E/DX2                !
 ! D38   D(15,19,20,21)        172.3407         estimate D2E/DX2                !
 ! D39   D(15,19,20,22)        -66.556          estimate D2E/DX2                !
 ! D40   D(15,19,20,23)         52.7872         estimate D2E/DX2                !
 ! D41   D(24,19,20,21)         -7.0484         estimate D2E/DX2                !
 ! D42   D(24,19,20,22)        114.0548         estimate D2E/DX2                !
 ! D43   D(24,19,20,23)       -126.602          estimate D2E/DX2                !
 ! D44   D(15,19,24,25)         -0.5233         estimate D2E/DX2                !
 ! D45   D(15,19,24,26)        178.4322         estimate D2E/DX2                !
 ! D46   D(20,19,24,25)        178.8295         estimate D2E/DX2                !
 ! D47   D(20,19,24,26)         -2.215          estimate D2E/DX2                !
 ! D48   D(19,24,26,1)         103.3629         estimate D2E/DX2                !
 ! D49   D(19,24,26,27)       -135.8146         estimate D2E/DX2                !
 ! D50   D(19,24,26,28)        -20.4373         estimate D2E/DX2                !
 ! D51   D(25,24,26,1)         -77.642          estimate D2E/DX2                !
 ! D52   D(25,24,26,27)         43.1805         estimate D2E/DX2                !
 ! D53   D(25,24,26,28)        158.5578         estimate D2E/DX2                !
 --------------------------------------------------------------------------------
 Trust Radius=3.00D-01 FncErr=1.00D-07 GrdErr=1.00D-07 EigMax=2.50D+02 EigMin=1.00D-04
 Number of steps in this run=    138 maximum allowed number of steps=    168.
 GradGradGradGradGradGradGradGradGradGradGradGradGradGradGradGradGradGrad

 Leave Link  103 at Fri Sep 17 15:09:39 2021, MaxMem=   524288000 cpu:               0.0 elap:               0.1
 (Enter /opt/gaussian/g16_legacy/l202.exe)
                          Input orientation:                          
 ---------------------------------------------------------------------
 Center     Atomic      Atomic             Coordinates (Angstroms)
 Number     Number       Type             X           Y           Z
 ---------------------------------------------------------------------
      1          6           0       -0.761700    0.232700   -0.808500
      2          1           0       -0.615000    1.166800   -0.253100
      3          1           0       -0.617800    0.506400   -1.862500
      4          6           0       -2.173800   -0.282500   -0.620800
      5          6           0       -2.714500   -1.096300   -1.768400
      6          1           0       -2.720000   -0.500300   -2.686900
      7          1           0       -2.096100   -1.984300   -1.932700
      8          1           0       -3.739800   -1.436600   -1.588800
      9          6           0       -2.935700   -0.036300    0.463400
     10          1           0       -3.949300   -0.435500    0.489800
     11          6           0       -2.551200    0.724500    1.692800
     12          1           0       -1.491800    0.987900    1.728800
     13          1           0       -3.139300    1.644800    1.759400
     14          1           0       -2.766100    0.118100    2.578600
     15          6           0        3.920000    0.653600   -0.028300
     16          1           0        4.118400    0.542100   -1.099500
     17          1           0        4.051500    1.710500    0.225800
     18          1           0        4.672500    0.069100    0.511200
     19          6           0        2.535700    0.194100    0.348400
     20          6           0        2.219400    0.319900    1.813300
     21          1           0        1.174300    0.109800    2.051600
     22          1           0        2.843000   -0.368200    2.393200
     23          1           0        2.422800    1.340500    2.155200
     24          6           0        1.687100   -0.270500   -0.589500
     25          1           0        2.023200   -0.297400   -1.626100
     26          6           0        0.291300   -0.796600   -0.385800
     27          1           0        0.187000   -1.709700   -0.985500
     28          1           0        0.126000   -1.106500    0.651300
 ---------------------------------------------------------------------
                    Distance matrix (angstroms):
                    1          2          3          4          5
     1  C    0.000000
     2  H    1.096601   0.000000
     3  H    1.098424   1.739628   0.000000
     4  C    1.514823   2.159984   2.141336   0.000000
     5  C    2.549721   3.438845   2.640768   1.507187   0.000000
     6  H    2.810803   3.624035   2.472312   2.148148   1.094938
     7  H    2.821265   3.865766   2.897220   2.150173   1.094512
     8  H    3.502072   4.280907   3.687417   2.172861   1.095126
     9  C    2.533055   2.710437   3.328212   1.347811   2.480617
    10  H    3.506119   3.773171   4.185616   2.099819   2.657227
    11  C    3.114591   2.780472   4.052871   2.551318   3.914318
    12  H    2.746136   2.174560   3.727352   2.756748   4.250799
    13  H    3.773741   3.263546   4.557639   3.211235   4.487701
    14  H    3.937410   3.707496   4.948670   3.278332   4.513739
    15  C    4.764891   4.569479   4.896691   6.193685   7.078608
    16  H    4.898549   4.848888   4.797399   6.364032   7.058350
    17  H    5.140094   4.722412   5.254828   6.591141   7.591687
    18  H    5.594542   5.454059   5.814891   6.948156   7.818088
    19  C    3.494675   3.351844   3.863958   4.831758   5.806081
    20  C    3.970944   3.608472   4.647149   5.058452   6.259199
    21  H    3.455918   3.103302   4.323088   4.301790   5.582996
    22  H    4.858583   4.617022   5.554552   5.853189   6.981035
    23  H    4.489073   3.880504   5.107141   5.609727   6.908291
    24  C    2.509540   2.734714   2.745299   3.861046   4.630965
    25  H    2.950448   3.314983   2.770715   4.315745   4.806692
    26  C    1.531973   2.166548   2.169082   2.529079   3.322083
    27  H    2.168935   3.074714   2.515538   2.782675   3.067229
    28  H    2.170826   2.556348   3.077966   2.754323   3.731420
                    6          7          8          9         10
     6  H    0.000000
     7  H    1.777730   0.000000
     8  H    1.767052   1.766350   0.000000
     9  C    3.191585   3.200145   2.611310   0.000000
    10  H    3.406875   3.420766   2.316607   1.089698   0.000000
    11  C    4.550868   4.548512   4.105121   1.496022   2.178874
    12  H    4.818882   4.754549   4.683820   2.176022   3.098467
    13  H    4.954478   5.281121   4.589779   2.132409   2.568196
    14  H    5.301890   5.022033   4.553285   2.127598   2.463640
    15  C    7.244946   6.839497   8.091763   6.907847   7.961184
    16  H    7.097193   6.759950   8.118250   7.248278   8.280662
    17  H    7.695757   7.490237   8.596590   7.206159   8.287811
    18  H    8.074721   7.483518   8.800223   7.609080   8.636580
    19  C    6.108815   5.603786   6.767114   5.477456   6.517025
    20  C    6.732177   6.161606   7.083194   5.340802   6.354144
    21  H    6.163698   5.563759   6.308109   4.408608   5.384036
    22  H    7.534709   6.761649   7.767307   6.101447   7.054275
    23  H    7.299512   6.941590   7.727060   5.785438   6.821392
    24  C    4.886146   4.365077   5.640003   4.746970   5.741177
    25  H    4.864608   4.461868   5.874635   5.387474   6.337733
    26  C    3.801418   3.082728   4.255182   3.422386   4.345084
    27  H    3.578835   2.486994   3.982250   3.827641   4.572644
    28  H    4.428405   3.519278   4.480114   3.248791   4.133327
                   11         12         13         14         15
    11  C    0.000000
    12  H    1.092247   0.000000
    13  H    1.094189   1.773897   0.000000
    14  H    1.094781   1.761406   1.772337   0.000000
    15  C    6.696540   5.699714   7.349290   7.196292   0.000000
    16  H    7.232826   6.298600   7.878037   7.816939   1.095109
    17  H    6.835198   5.788725   7.352812   7.385870   1.094941
    18  H    7.348984   6.350223   8.066291   7.720707   1.094969
    19  C    5.288222   4.330864   6.025037   5.752274   1.506429
    20  C    4.789243   3.771786   5.520320   5.047932   2.528811
    21  H    3.792881   2.825482   4.587892   3.975494   3.487201
    22  H    5.548148   4.590308   6.343641   5.633193   2.840364
    23  H    5.033284   3.953509   5.584462   5.347730   2.735162
    24  C    4.915496   4.130798   5.699109   5.478947   2.480877
    25  H    5.743214   5.026189   6.471874   6.386669   2.656166
    26  C    3.835900   3.291720   4.725604   4.355690   3.924073
    27  H    4.538321   4.178856   5.463645   4.976390   4.520698
    28  H    3.406565   2.857410   4.411317   3.684884   4.237245
                   16         17         18         19         20
    16  H    0.000000
    17  H    1.768065   0.000000
    18  H    1.767798   1.778001   0.000000
    19  C    2.173122   2.147592   2.146635   0.000000
    20  C    3.484247   2.794730   2.788560   1.503929   0.000000
    21  H    4.334056   3.764846   3.822550   2.182065   1.092320
    22  H    3.828086   3.237142   2.660869   2.142854   1.094825
    23  H    3.755739   2.551891   3.062735   2.142780   1.095396
    24  C    2.613740   3.190527   3.199919   1.347454   2.530882
    25  H    2.317743   3.402234   3.423619   2.098304   3.499861
    26  C    4.116817   4.560560   4.555103   2.560833   3.130524
    27  H    4.532053   5.300884   5.052123   3.304563   4.010387
    28  H    4.660734   4.850370   4.698119   2.754989   2.786967
                   21         22         23         24         25
    21  H    0.000000
    22  H    1.769105   0.000000
    23  H    1.756163   1.775632   0.000000
    24  C    2.717168   3.200336   3.266489   0.000000
    25  H    3.796304   4.102665   4.140124   1.090058   0.000000
    26  C    2.746301   3.797044   3.945525   1.505501   2.187926
    27  H    3.675502   4.502174   4.915945   2.116226   2.403454
    28  H    2.130530   3.310799   3.677610   2.162294   3.072550
                   26         27         28
    26  C    0.000000
    27  H    1.097392   0.000000
    28  H    1.094961   1.745476   0.000000
 Stoichiometry    C10H18
 Framework group  C1[X(C10H18)]
 Deg. of freedom    78
 Full point group                 C1      NOp   1
 Largest Abelian subgroup         C1      NOp   1
 Largest concise Abelian subgroup C1      NOp   1
                         Standard orientation:                         
 ---------------------------------------------------------------------
 Center     Atomic      Atomic             Coordinates (Angstroms)
 Number     Number       Type             X           Y           Z
 ---------------------------------------------------------------------
      1          6           0        0.793808   -0.586470    0.589151
      2          1           0        0.484632    0.235317    1.246121
      3          1           0        0.746006   -1.484366    1.220049
      4          6           0        2.220940   -0.386965    0.122052
      5          6           0        2.975694   -1.655005   -0.184595
      6          1           0        3.025286   -2.291679    0.704829
      7          1           0        2.478713   -2.212177   -0.984923
      8          1           0        4.003247   -1.458192   -0.508169
      9          6           0        2.820160    0.813963   -0.001655
     10          1           0        3.860356    0.846714   -0.324707
     11          6           0        2.215699    2.161858    0.234750
     12          1           0        1.137412    2.131938    0.406230
     13          1           0        2.690765    2.635749    1.099036
     14          1           0        2.388668    2.797180   -0.639888
     15          6           0       -3.965065   -0.407927    0.429686
     16          1           0       -4.023717   -1.466028    0.705814
     17          1           0       -4.237017    0.181262    1.311613
     18          1           0       -4.709114   -0.227481   -0.353122
     19          6           0       -2.593430   -0.018257   -0.056220
     20          6           0       -2.465970    1.425930   -0.456072
     21          1           0       -1.439579    1.725943   -0.678958
     22          1           0       -3.076455    1.626062   -1.342580
     23          1           0       -2.815335    2.072759    0.355992
     24          6           0       -1.596322   -0.923634   -0.097428
     25          1           0       -1.803986   -1.940171    0.236868
     26          6           0       -0.185999   -0.715613   -0.581422
     27          1           0        0.084264   -1.577144   -1.205115
     28          1           0       -0.111239    0.157026   -1.238576
 ---------------------------------------------------------------------
 Rotational constants (GHZ):           2.2181229           0.5802351           0.4854254
 Leave Link  202 at Fri Sep 17 15:09:39 2021, MaxMem=   524288000 cpu:               0.0 elap:               0.1
 (Enter /opt/gaussian/g16_legacy/l301.exe)
 Standard basis: 6-31G(d,p) (6D, 7F)
 Ernie: Thresh=  0.10000D-02 Tol=  0.10000D-05 Strict=F.
 There are   240 symmetry adapted cartesian basis functions of A   symmetry.
 There are   240 symmetry adapted basis functions of A   symmetry.
   240 basis functions,   406 primitive gaussians,   240 cartesian basis functions
    39 alpha electrons       39 beta electrons
       nuclear repulsion energy       516.4367633383 Hartrees.
 IExCor=    0 DFT=F Ex=HF Corr=None ExCW=0 ScaHFX=  1.000000
 ScaDFX=  1.000000  1.000000  1.000000  1.000000 ScalE2=  1.000000  1.000000
 IRadAn=      5 IRanWt=     -1 IRanGd=            0 ICorTp=0 IEmpDi=  4
 NAtoms=   28 NActive=   28 NUniq=   28 SFac= 1.00D+00 NAtFMM=   60 NAOKFM=F Big=F
 Integral buffers will be    131072 words long.
 Raffenetti 1 integral format.
 Two-electron integral symmetry is turned on.
 Leave Link  301 at Fri Sep 17 15:09:39 2021, MaxMem=   524288000 cpu:               0.0 elap:               0.1
 (Enter /opt/gaussian/g16_legacy/l302.exe)
 NPDir=0 NMtPBC=     1 NCelOv=     1 NCel=       1 NClECP=     1 NCelD=      1
         NCelK=      1 NCelE2=     1 NClLst=     1 CellRange=     0.0.
 One-electron integrals computed using PRISM.
 One-electron integral symmetry used in STVInt
 NBasis=   240 RedAO= T EigKep=  2.10D-03  NBF=   240
 NBsUse=   240 1.00D-06 EigRej= -1.00D+00 NBFU=   240
 Leave Link  302 at Fri Sep 17 15:09:40 2021, MaxMem=   524288000 cpu:               0.2 elap:               0.3
 (Enter /opt/gaussian/g16_legacy/l303.exe)
 DipDrv:  MaxL=1.
 Leave Link  303 at Fri Sep 17 15:09:40 2021, MaxMem=   524288000 cpu:               0.0 elap:               0.1
 (Enter /opt/gaussian/g16_legacy/l401.exe)
 ExpMin= 1.61D-01 ExpMax= 3.05D+03 ExpMxC= 4.57D+02 IAcc=3 IRadAn=         5 AccDes= 0.00D+00
 Harris functional with IExCor=  205 and IRadAn=       5 diagonalized for initial guess.
 HarFok:  IExCor=  205 AccDes= 0.00D+00 IRadAn=         5 IDoV= 1 UseB2=F ITyADJ=14
 ICtDFT=  3500011 ScaDFX=  1.000000  1.000000  1.000000  1.000000
 FoFCou: FMM=F IPFlag=           0 FMFlag=      100000 FMFlg1=           0
         NFxFlg=           0 DoJE=T BraDBF=F KetDBF=T FulRan=T
         wScrn=  0.000000 ICntrl=       500 IOpCl=  0 I1Cent=   200000004 NGrid=           0
         NMat0=    1 NMatS0=      1 NMatT0=    0 NMatD0=    1 NMtDS0=    0 NMtDT0=    0
 Petite list used in FoFCou.
 Harris En= -390.109900541439    
 JPrj=0 DoOrth=F DoCkMO=F.
 Leave Link  401 at Fri Sep 17 15:09:47 2021, MaxMem=   524288000 cpu:               6.5 elap:               6.7
 (Enter /opt/gaussian/g16_legacy/l502.exe)
 Keep R1 ints in memory in canonical form, NReq=425198025.
 FoFCou: FMM=F IPFlag=           0 FMFlag=           0 FMFlg1=           0
         NFxFlg=           0 DoJE=F BraDBF=F KetDBF=F FulRan=T
         wScrn=  0.000000 ICntrl=       600 IOpCl=  0 I1Cent=           0 NGrid=           0
         NMat0=    1 NMatS0=  28920 NMatT0=    0 NMatD0=    1 NMtDS0=    0 NMtDT0=    0
 Symmetry not used in FoFCou.
 Two-electron integral symmetry not used.
 Closed shell SCF:
 Using DIIS extrapolation, IDIIS=  1040.
 NGot=   524288000 LenX=   105970886 LenY=   105912845
 Requested convergence on RMS density matrix=1.00D-08 within 128 cycles.
 Requested convergence on MAX density matrix=1.00D-06.
 Requested convergence on             energy=1.00D-06.
 No special actions if energy rises.

 Cycle   1  Pass 1  IDiag  1:
 E= -388.533163946639    
 DIIS: error= 5.21D-02 at cycle   1 NSaved=   1.
 NSaved= 1 IEnMin= 1 EnMin= -388.533163946639     IErMin= 1 ErrMin= 5.21D-02
 ErrMax= 5.21D-02  0.00D+00 EMaxC= 1.00D-01 BMatC= 8.07D-01 BMatP= 8.07D-01
 IDIUse=3 WtCom= 4.79D-01 WtEn= 5.21D-01
 Coeff-Com:  0.100D+01
 Coeff-En:   0.100D+01
 Coeff:      0.100D+01
 Gap=     0.508 Goal=   None    Shift=    0.000
 GapD=    0.508 DampG=2.000 DampE=0.500 DampFc=1.0000 IDamp=-1.
 RMSDP=4.00D-03 MaxDP=1.14D-01              OVMax= 1.33D-01

 Cycle   2  Pass 1  IDiag  1:
 E= -389.073866547650     Delta-E=       -0.540702601010 Rises=F Damp=F
 DIIS: error= 1.59D-02 at cycle   2 NSaved=   2.
 NSaved= 2 IEnMin= 2 EnMin= -389.073866547650     IErMin= 2 ErrMin= 1.59D-02
 ErrMax= 1.59D-02  0.00D+00 EMaxC= 1.00D-01 BMatC= 8.66D-02 BMatP= 8.07D-01
 IDIUse=3 WtCom= 8.41D-01 WtEn= 1.59D-01
 Coeff-Com:  0.183D+00 0.817D+00
 Coeff-En:   0.000D+00 0.100D+01
 Coeff:      0.154D+00 0.846D+00
 Gap=     0.549 Goal=   None    Shift=    0.000
 RMSDP=1.63D-03 MaxDP=3.04D-02 DE=-5.41D-01 OVMax= 4.61D-02

 Cycle   3  Pass 1  IDiag  1:
 E= -389.151431556386     Delta-E=       -0.077565008736 Rises=F Damp=F
 DIIS: error= 3.43D-03 at cycle   3 NSaved=   3.
 NSaved= 3 IEnMin= 3 EnMin= -389.151431556386     IErMin= 3 ErrMin= 3.43D-03
 ErrMax= 3.43D-03  0.00D+00 EMaxC= 1.00D-01 BMatC= 3.14D-03 BMatP= 8.66D-02
 IDIUse=3 WtCom= 9.66D-01 WtEn= 3.43D-02
 Coeff-Com: -0.245D-01 0.106D+00 0.919D+00
 Coeff-En:   0.000D+00 0.000D+00 0.100D+01
 Coeff:     -0.236D-01 0.102D+00 0.921D+00
 Gap=     0.499 Goal=   None    Shift=    0.000
 RMSDP=2.59D-04 MaxDP=7.14D-03 DE=-7.76D-02 OVMax= 1.01D-02

 Cycle   4  Pass 1  IDiag  1:
 E= -389.155057560527     Delta-E=       -0.003626004142 Rises=F Damp=F
 DIIS: error= 5.31D-04 at cycle   4 NSaved=   4.
 NSaved= 4 IEnMin= 4 EnMin= -389.155057560527     IErMin= 4 ErrMin= 5.31D-04
 ErrMax= 5.31D-04  0.00D+00 EMaxC= 1.00D-01 BMatC= 9.28D-05 BMatP= 3.14D-03
 IDIUse=3 WtCom= 9.95D-01 WtEn= 5.31D-03
 Coeff-Com: -0.424D-02-0.190D-02 0.949D-01 0.911D+00
 Coeff-En:   0.000D+00 0.000D+00 0.000D+00 0.100D+01
 Coeff:     -0.421D-02-0.189D-02 0.944D-01 0.912D+00
 Gap=     0.499 Goal=   None    Shift=    0.000
 RMSDP=7.39D-05 MaxDP=1.49D-03 DE=-3.63D-03 OVMax= 3.14D-03

 Cycle   5  Pass 1  IDiag  1:
 E= -389.155181883024     Delta-E=       -0.000124322497 Rises=F Damp=F
 DIIS: error= 1.63D-04 at cycle   5 NSaved=   5.
 NSaved= 5 IEnMin= 5 EnMin= -389.155181883024     IErMin= 5 ErrMin= 1.63D-04
 ErrMax= 1.63D-04  0.00D+00 EMaxC= 1.00D-01 BMatC= 1.60D-05 BMatP= 9.28D-05
 IDIUse=3 WtCom= 9.98D-01 WtEn= 1.63D-03
 Coeff-Com:  0.241D-02-0.152D-01-0.102D+00 0.176D+00 0.939D+00
 Coeff-En:   0.000D+00 0.000D+00 0.000D+00 0.000D+00 0.100D+01
 Coeff:      0.241D-02-0.152D-01-0.102D+00 0.175D+00 0.939D+00
 Gap=     0.500 Goal=   None    Shift=    0.000
 RMSDP=3.00D-05 MaxDP=6.56D-04 DE=-1.24D-04 OVMax= 9.23D-04

 Cycle   6  Pass 1  IDiag  1:
 E= -389.155203360941     Delta-E=       -0.000021477918 Rises=F Damp=F
 DIIS: error= 3.58D-05 at cycle   6 NSaved=   6.
 NSaved= 6 IEnMin= 6 EnMin= -389.155203360941     IErMin= 6 ErrMin= 3.58D-05
 ErrMax= 3.58D-05  0.00D+00 EMaxC= 1.00D-01 BMatC= 5.50D-07 BMatP= 1.60D-05
 IDIUse=1 WtCom= 1.00D+00 WtEn= 0.00D+00
 Coeff-Com:  0.720D-03-0.335D-02-0.261D-01-0.433D-02 0.177D+00 0.856D+00
 Coeff:      0.720D-03-0.335D-02-0.261D-01-0.433D-02 0.177D+00 0.856D+00
 Gap=     0.500 Goal=   None    Shift=    0.000
 RMSDP=5.30D-06 MaxDP=1.61D-04 DE=-2.15D-05 OVMax= 3.24D-04

 Cycle   7  Pass 1  IDiag  1:
 E= -389.155204202064     Delta-E=       -0.000000841122 Rises=F Damp=F
 DIIS: error= 1.03D-05 at cycle   7 NSaved=   7.
 NSaved= 7 IEnMin= 7 EnMin= -389.155204202064     IErMin= 7 ErrMin= 1.03D-05
 ErrMax= 1.03D-05  0.00D+00 EMaxC= 1.00D-01 BMatC= 5.45D-08 BMatP= 5.50D-07
 IDIUse=1 WtCom= 1.00D+00 WtEn= 0.00D+00
 Coeff-Com: -0.495D-04 0.464D-03 0.301D-02-0.105D-01-0.468D-01 0.145D+00
 Coeff-Com:  0.909D+00
 Coeff:     -0.495D-04 0.464D-03 0.301D-02-0.105D-01-0.468D-01 0.145D+00
 Coeff:      0.909D+00
 Gap=     0.500 Goal=   None    Shift=    0.000
 RMSDP=1.71D-06 MaxDP=4.10D-05 DE=-8.41D-07 OVMax= 8.43D-05

 Cycle   8  Pass 1  IDiag  1:
 E= -389.155204291074     Delta-E=       -0.000000089010 Rises=F Damp=F
 DIIS: error= 3.52D-06 at cycle   8 NSaved=   8.
 NSaved= 8 IEnMin= 8 EnMin= -389.155204291074     IErMin= 8 ErrMin= 3.52D-06
 ErrMax= 3.52D-06  0.00D+00 EMaxC= 1.00D-01 BMatC= 5.10D-09 BMatP= 5.45D-08
 IDIUse=1 WtCom= 1.00D+00 WtEn= 0.00D+00
 Coeff-Com: -0.581D-04 0.249D-03 0.208D-02 0.315D-02-0.171D-01-0.804D-01
 Coeff-Com: -0.123D+00 0.121D+01
 Coeff:     -0.581D-04 0.249D-03 0.208D-02 0.315D-02-0.171D-01-0.804D-01
 Coeff:     -0.123D+00 0.121D+01
 Gap=     0.500 Goal=   None    Shift=    0.000
 RMSDP=7.86D-07 MaxDP=2.41D-05 DE=-8.90D-08 OVMax= 5.81D-05

 Cycle   9  Pass 1  IDiag  1:
 E= -389.155204306979     Delta-E=       -0.000000015905 Rises=F Damp=F
 DIIS: error= 1.46D-06 at cycle   9 NSaved=   9.
 NSaved= 9 IEnMin= 9 EnMin= -389.155204306979     IErMin= 9 ErrMin= 1.46D-06
 ErrMax= 1.46D-06  0.00D+00 EMaxC= 1.00D-01 BMatC= 7.39D-10 BMatP= 5.10D-09
 IDIUse=1 WtCom= 1.00D+00 WtEn= 0.00D+00
 Coeff-Com:  0.930D-05-0.691D-04-0.481D-03 0.144D-02 0.386D-02 0.971D-04
 Coeff-Com: -0.865D-01-0.120D+00 0.120D+01
 Coeff:      0.930D-05-0.691D-04-0.481D-03 0.144D-02 0.386D-02 0.971D-04
 Coeff:     -0.865D-01-0.120D+00 0.120D+01
 Gap=     0.500 Goal=   None    Shift=    0.000
 RMSDP=2.99D-07 MaxDP=1.24D-05 DE=-1.59D-08 OVMax= 2.71D-05

 Cycle  10  Pass 1  IDiag  1:
 E= -389.155204309405     Delta-E=       -0.000000002425 Rises=F Damp=F
 DIIS: error= 3.97D-07 at cycle  10 NSaved=  10.
 NSaved=10 IEnMin=10 EnMin= -389.155204309405     IErMin=10 ErrMin= 3.97D-07
 ErrMax= 3.97D-07  0.00D+00 EMaxC= 1.00D-01 BMatC= 1.21D-10 BMatP= 7.39D-10
 IDIUse=1 WtCom= 1.00D+00 WtEn= 0.00D+00
 Coeff-Com:  0.952D-05-0.464D-04-0.369D-03-0.135D-03 0.233D-02 0.142D-01
 Coeff-Com:  0.596D-02-0.211D+00 0.143D+00 0.105D+01
 Coeff:      0.952D-05-0.464D-04-0.369D-03-0.135D-03 0.233D-02 0.142D-01
 Coeff:      0.596D-02-0.211D+00 0.143D+00 0.105D+01
 Gap=     0.500 Goal=   None    Shift=    0.000
 RMSDP=1.24D-07 MaxDP=3.07D-06 DE=-2.43D-09 OVMax= 9.88D-06

 Cycle  11  Pass 1  IDiag  1:
 E= -389.155204309713     Delta-E=       -0.000000000308 Rises=F Damp=F
 DIIS: error= 1.55D-07 at cycle  11 NSaved=  11.
 NSaved=11 IEnMin=11 EnMin= -389.155204309713     IErMin=11 ErrMin= 1.55D-07
 ErrMax= 1.55D-07  0.00D+00 EMaxC= 1.00D-01 BMatC= 9.54D-12 BMatP= 1.21D-10
 IDIUse=1 WtCom= 1.00D+00 WtEn= 0.00D+00
 Coeff-Com:  0.394D-06 0.840D-06 0.102D-05-0.149D-03-0.305D-03 0.278D-02
 Coeff-Com:  0.110D-01-0.153D-01-0.107D+00 0.164D+00 0.945D+00
 Coeff:      0.394D-06 0.840D-06 0.102D-05-0.149D-03-0.305D-03 0.278D-02
 Coeff:      0.110D-01-0.153D-01-0.107D+00 0.164D+00 0.945D+00
 Gap=     0.500 Goal=   None    Shift=    0.000
 RMSDP=2.76D-08 MaxDP=1.16D-06 DE=-3.08D-10 OVMax= 2.51D-06

 Cycle  12  Pass 1  IDiag  1:
 E= -389.155204309728     Delta-E=       -0.000000000015 Rises=F Damp=F
 DIIS: error= 3.64D-08 at cycle  12 NSaved=  12.
 NSaved=12 IEnMin=12 EnMin= -389.155204309728     IErMin=12 ErrMin= 3.64D-08
 ErrMax= 3.64D-08  0.00D+00 EMaxC= 1.00D-01 BMatC= 1.17D-12 BMatP= 9.54D-12
 IDIUse=1 WtCom= 1.00D+00 WtEn= 0.00D+00
 Coeff-Com: -0.102D-05 0.547D-05 0.429D-04 0.320D-05-0.343D-03-0.126D-02
 Coeff-Com:  0.367D-03 0.217D-01-0.322D-01-0.113D+00 0.984D-01 0.103D+01
 Coeff:     -0.102D-05 0.547D-05 0.429D-04 0.320D-05-0.343D-03-0.126D-02
 Coeff:      0.367D-03 0.217D-01-0.322D-01-0.113D+00 0.984D-01 0.103D+01
 Gap=     0.500 Goal=   None    Shift=    0.000
 RMSDP=1.18D-08 MaxDP=3.33D-07 DE=-1.55D-11 OVMax= 8.46D-07

 Cycle  13  Pass 1  IDiag  1:
 E= -389.155204309743     Delta-E=       -0.000000000014 Rises=F Damp=F
 DIIS: error= 1.06D-08 at cycle  13 NSaved=  13.
 NSaved=13 IEnMin=13 EnMin= -389.155204309743     IErMin=13 ErrMin= 1.06D-08
 ErrMax= 1.06D-08  0.00D+00 EMaxC= 1.00D-01 BMatC= 5.48D-14 BMatP= 1.17D-12
 IDIUse=1 WtCom= 1.00D+00 WtEn= 0.00D+00
 Coeff-Com: -0.122D-06 0.462D-06 0.389D-05 0.136D-04-0.170D-04-0.298D-03
 Coeff-Com: -0.849D-03 0.352D-02 0.515D-02-0.213D-01-0.612D-01 0.111D+00
 Coeff-Com:  0.964D+00
 Coeff:     -0.122D-06 0.462D-06 0.389D-05 0.136D-04-0.170D-04-0.298D-03
 Coeff:     -0.849D-03 0.352D-02 0.515D-02-0.213D-01-0.612D-01 0.111D+00
 Coeff:      0.964D+00
 Gap=     0.500 Goal=   None    Shift=    0.000
 RMSDP=2.13D-09 MaxDP=7.03D-08 DE=-1.42D-11 OVMax= 1.05D-07

 SCF Done:  E(RHF) =  -389.155204310     A.U. after   13 cycles
            NFock= 13  Conv=0.21D-08     -V/T= 2.0014
 KE= 3.886259341039D+02 PE=-1.937507261706D+03 EE= 6.432893599540D+02
 Leave Link  502 at Fri Sep 17 15:10:02 2021, MaxMem=   524288000 cpu:              14.5 elap:              15.3
 (Enter /opt/gaussian/g16_legacy/l801.exe)
 ExpMin= 1.61D-01 ExpMax= 3.05D+03 ExpMxC= 4.57D+02 IAcc=3 IRadAn=         5 AccDes= 0.00D+00
 HarFok:  IExCor=  205 AccDes= 0.00D+00 IRadAn=         5 IDoV=-2 UseB2=F ITyADJ=14
 ICtDFT= 12500011 ScaDFX=  1.000000  1.000000  1.000000  1.000000
 Largest valence mixing into a core orbital is  1.98D-04
 Largest core mixing into a valence orbital is  3.52D-05
 Range of M.O.s used for correlation:    11   240
 NBasis=   240 NAE=    39 NBE=    39 NFC=    10 NFV=     0
 NROrb=    230 NOA=    29 NOB=    29 NVA=   201 NVB=   201
 Leave Link  801 at Fri Sep 17 15:10:03 2021, MaxMem=   524288000 cpu:               0.9 elap:               1.1
 (Enter /opt/gaussian/g16_legacy/l906.exe)
 Frozen-core derivative calculation, NFC=  10 NFV=   0.
 FulOut=F Deriv=T AODrv=T NAtomX=    28
   MMem=          88  MDisk=          29 MDiskD=          29
  W3Min=     2246400 MinDsk=     2795480 NBas6D=         240
 NBas2D=       29244    NTT=       28920    LW2=     2040000
    MDV=   523626386 MDiskM=       30186 NBas2p=       24383
 Fully direct method using O(ONN) memory.
 IMap=   1   2   3   4   5   6   7   8   9  10  11  12  13  14  15  16  17  18  19  20
 IMap=  21  22  23  24  25  26  27  28  29  30  31  32  33  34  35  36  37  38  39
 JobTyp=1 Pass  1:  I=  11 to  39 NPSUse=  1 ParTrn=F ParDer=F DoDerP=T.
 Spin components of T(2) and E(2):
     alpha-alpha T2 =       0.5715210856D-01 E2=     -0.1638039173D+00
     alpha-beta  T2 =       0.3618180105D+00 E2=     -0.1089340286D+01
     beta-beta   T2 =       0.5715210856D-01 E2=     -0.1638039173D+00
 The integrals were generated   1 times.
 ANorm=    0.1214957706D+01
 E2 =    -0.1416948121D+01 EUMP2 =    -0.39057215243038D+03
 Leave Link  906 at Fri Sep 17 15:12:48 2021, MaxMem=   524288000 cpu:             164.0 elap:             164.4
 (Enter /opt/gaussian/g16_legacy/l1002.exe)
 Minotr:  Closed shell wavefunction.
          Computing MP2/KS-MP2 derivatives.
          Using Z-Vector for PSCF gradient.
          Skipping F1 and S1 gradient terms here.
          IDoAtm=1111111111111111111111111111
          Frozen-core window.
          Direct CPHF calculation.
          Differentiating once with respect to electric field.
                with respect to dipole field.
          Differentiating once with respect to nuclear coordinates.
          Requested convergence is 1.0D-10 RMS, and 1.0D-09 maximum.
          NewPWx=F KeepS1=T KeepF1=T KeepIn=T MapXYZ=F SortEE=F KeepMc=T.
 Keep R1 ints in memory in canonical form, NReq=425201067.
 FoFCou: FMM=F IPFlag=           0 FMFlag=           0 FMFlg1=           0
         NFxFlg=           0 DoJE=F BraDBF=F KetDBF=F FulRan=T
         wScrn=  0.000000 ICntrl=       600 IOpCl=  0 I1Cent=           0 NGrid=           0
         NMat0=    1 NMatS0=  28920 NMatT0=    0 NMatD0=    1 NMtDS0=    0 NMtDT0=    0
 Symmetry not used in FoFCou.
 Two-electron integral symmetry not used.
          MDV=     524288000 using IRadAn=       5.
          Solving linear equations separately, MaxMat=       0.
          There are     1 degrees of freedom in the 1st order CPHF.  IDoFFX=0 NUNeed=     1.
 LinEq1:  Iter=  0 NonCon=     1 RMS=2.55D-03 Max=3.76D-02 NDo=     1
 AX will form     1 AO Fock derivatives at one time.
 LinEq1:  Iter=  1 NonCon=     1 RMS=6.90D-04 Max=9.74D-03 NDo=     1
 LinEq1:  Iter=  2 NonCon=     1 RMS=1.61D-04 Max=4.14D-03 NDo=     1
 LinEq1:  Iter=  3 NonCon=     1 RMS=4.31D-05 Max=5.08D-04 NDo=     1
 LinEq1:  Iter=  4 NonCon=     1 RMS=1.99D-05 Max=8.55D-04 NDo=     1
 LinEq1:  Iter=  5 NonCon=     1 RMS=5.06D-06 Max=8.26D-05 NDo=     1
 LinEq1:  Iter=  6 NonCon=     1 RMS=1.63D-06 Max=2.68D-05 NDo=     1
 LinEq1:  Iter=  7 NonCon=     1 RMS=4.13D-07 Max=4.19D-06 NDo=     1
 LinEq1:  Iter=  8 NonCon=     1 RMS=1.01D-07 Max=1.86D-06 NDo=     1
 LinEq1:  Iter=  9 NonCon=     1 RMS=2.33D-08 Max=6.33D-07 NDo=     1
 LinEq1:  Iter= 10 NonCon=     1 RMS=6.42D-09 Max=1.63D-07 NDo=     1
 LinEq1:  Iter= 11 NonCon=     1 RMS=1.89D-09 Max=3.64D-08 NDo=     1
 LinEq1:  Iter= 12 NonCon=     1 RMS=4.16D-10 Max=7.79D-09 NDo=     1
 LinEq1:  Iter= 13 NonCon=     1 RMS=1.07D-10 Max=9.39D-10 NDo=     1
 LinEq1:  Iter= 14 NonCon=     1 RMS=4.39D-11 Max=1.61D-09 NDo=     1
 LinEq1:  Iter= 15 NonCon=     0 RMS=1.35D-11 Max=1.87D-10 NDo=     1
 Linear equations converged to 1.000D-10 1.000D-09 after    15 iterations.
 End of Minotr F.D. properties file   721 does not exist.
 End of Minotr F.D. properties file   722 does not exist.
 End of Minotr F.D. properties file   788 does not exist.
 Leave Link 1002 at Fri Sep 17 15:13:07 2021, MaxMem=   524288000 cpu:              18.5 elap:              18.8
 (Enter /opt/gaussian/g16_legacy/l601.exe)
 Copying SCF densities to generalized density rwf, IOpCl= 0 IROHF=0.

 **********************************************************************

            Population analysis using the SCF density.

 **********************************************************************

 Orbital symmetries:
       Occupied  (A) (A) (A) (A) (A) (A) (A) (A) (A) (A) (A) (A)
                 (A) (A) (A) (A) (A) (A) (A) (A) (A) (A) (A) (A)
                 (A) (A) (A) (A) (A) (A) (A) (A) (A) (A) (A) (A)
                 (A) (A) (A)
       Virtual   (A) (A) (A) (A) (A) (A) (A) (A) (A) (A) (A) (A)
                 (A) (A) (A) (A) (A) (A) (A) (A) (A) (A) (A) (A)
                 (A) (A) (A) (A) (A) (A) (A) (A) (A) (A) (A) (A)
                 (A) (A) (A) (A) (A) (A) (A) (A) (A) (A) (A) (A)
                 (A) (A) (A) (A) (A) (A) (A) (A) (A) (A) (A) (A)
                 (A) (A) (A) (A) (A) (A) (A) (A) (A) (A) (A) (A)
                 (A) (A) (A) (A) (A) (A) (A) (A) (A) (A) (A) (A)
                 (A) (A) (A) (A) (A) (A) (A) (A) (A) (A) (A) (A)
                 (A) (A) (A) (A) (A) (A) (A) (A) (A) (A) (A) (A)
                 (A) (A) (A) (A) (A) (A) (A) (A) (A) (A) (A) (A)
                 (A) (A) (A) (A) (A) (A) (A) (A) (A) (A) (A) (A)
                 (A) (A) (A) (A) (A) (A) (A) (A) (A) (A) (A) (A)
                 (A) (A) (A) (A) (A) (A) (A) (A) (A) (A) (A) (A)
                 (A) (A) (A) (A) (A) (A) (A) (A) (A) (A) (A) (A)
                 (A) (A) (A) (A) (A) (A) (A) (A) (A) (A) (A) (A)
                 (A) (A) (A) (A) (A) (A) (A) (A) (A) (A) (A) (A)
                 (A) (A) (A) (A) (A) (A) (A) (A) (A)
 The electronic state is 1-A.
 Alpha  occ. eigenvalues --  -11.23061 -11.22505 -11.21999 -11.21921 -11.21884
 Alpha  occ. eigenvalues --  -11.21650 -11.21554 -11.21484 -11.21456 -11.21437
 Alpha  occ. eigenvalues --   -1.10624  -1.08327  -1.01912  -0.98014  -0.93646
 Alpha  occ. eigenvalues --   -0.91775  -0.86754  -0.82684  -0.70599  -0.69343
 Alpha  occ. eigenvalues --   -0.64585  -0.61545  -0.60102  -0.59030  -0.58088
 Alpha  occ. eigenvalues --   -0.56804  -0.55368  -0.55148  -0.53548  -0.51981
 Alpha  occ. eigenvalues --   -0.51715  -0.51321  -0.50592  -0.49229  -0.48275
 Alpha  occ. eigenvalues --   -0.46013  -0.44274  -0.33355  -0.31524
 Alpha virt. eigenvalues --    0.18454   0.19493   0.22038   0.24453   0.25183
 Alpha virt. eigenvalues --    0.27141   0.28395   0.28931   0.30249   0.30504
 Alpha virt. eigenvalues --    0.31237   0.32116   0.33135   0.33436   0.34031
 Alpha virt. eigenvalues --    0.35677   0.35774   0.36970   0.38998   0.40649
 Alpha virt. eigenvalues --    0.41063   0.42595   0.43321   0.44193   0.45151
 Alpha virt. eigenvalues --    0.51685   0.54046   0.61170   0.62445   0.70139
 Alpha virt. eigenvalues --    0.71101   0.71887   0.74279   0.76418   0.76615
 Alpha virt. eigenvalues --    0.76877   0.78795   0.79454   0.81139   0.82036
 Alpha virt. eigenvalues --    0.83812   0.85655   0.88079   0.91265   0.92027
 Alpha virt. eigenvalues --    0.92895   0.95178   0.97058   0.98263   0.99207
 Alpha virt. eigenvalues --    0.99752   1.00203   1.02303   1.03925   1.06183
 Alpha virt. eigenvalues --    1.07863   1.08637   1.08808   1.11199   1.12390
 Alpha virt. eigenvalues --    1.12559   1.13432   1.14584   1.14925   1.15819
 Alpha virt. eigenvalues --    1.16163   1.16401   1.18223   1.18704   1.20092
 Alpha virt. eigenvalues --    1.20660   1.22064   1.22853   1.25018   1.27540
 Alpha virt. eigenvalues --    1.34170   1.40671   1.41849   1.43739   1.45172
 Alpha virt. eigenvalues --    1.47558   1.53479   1.56256   1.56979   1.58246
 Alpha virt. eigenvalues --    1.59853   1.62719   1.65798   1.69521   1.70790
 Alpha virt. eigenvalues --    1.75331   1.82524   1.92036   1.92196   1.95499
 Alpha virt. eigenvalues --    1.98631   2.01126   2.02849   2.04185   2.08703
 Alpha virt. eigenvalues --    2.09246   2.11124   2.11379   2.13106   2.14507
 Alpha virt. eigenvalues --    2.15428   2.17690   2.19725   2.23577   2.27382
 Alpha virt. eigenvalues --    2.28336   2.29995   2.32202   2.34974   2.35567
 Alpha virt. eigenvalues --    2.35645   2.35784   2.39323   2.39849   2.40351
 Alpha virt. eigenvalues --    2.41282   2.41826   2.43038   2.45160   2.45387
 Alpha virt. eigenvalues --    2.47034   2.48340   2.49335   2.50338   2.54523
 Alpha virt. eigenvalues --    2.56587   2.57719   2.61272   2.62185   2.64352
 Alpha virt. eigenvalues --    2.66340   2.67162   2.72032   2.72993   2.73745
 Alpha virt. eigenvalues --    2.75718   2.77699   2.81093   2.82803   2.85157
 Alpha virt. eigenvalues --    2.87730   2.89153   2.91919   2.93443   2.94437
 Alpha virt. eigenvalues --    2.97093   2.99036   3.01163   3.02600   3.05096
 Alpha virt. eigenvalues --    3.05824   3.06632   3.08508   3.13015   3.15938
 Alpha virt. eigenvalues --    3.17136   3.18161   3.19614   3.20682   3.21265
 Alpha virt. eigenvalues --    3.23190   3.24411   3.26461   3.27242   3.36665
 Alpha virt. eigenvalues --    3.39074   3.44607   3.45619   3.55548   3.57294
 Alpha virt. eigenvalues --    3.58696   3.61055   3.66888   3.73949   3.78195
 Alpha virt. eigenvalues --    3.78866   3.80510   3.81323   3.82329   3.82834
 Alpha virt. eigenvalues --    3.84213   3.85754   3.87658   3.89507   3.91178
 Alpha virt. eigenvalues --    3.95897   4.59094   4.62633   4.74429   4.82816
 Alpha virt. eigenvalues --    4.88836   4.92667   4.93353   5.07551   5.10289
 Alpha virt. eigenvalues --    5.16870
          Condensed to atoms (all electrons):
               1          2          3          4          5          6
     1  C    5.001852   0.412347   0.413500   0.340282  -0.058745  -0.003554
     2  H    0.412347   0.571697  -0.030229  -0.040528   0.003237  -0.000016
     3  H    0.413500  -0.030229   0.588545  -0.045061  -0.004692   0.002571
     4  C    0.340282  -0.040528  -0.045061   4.955083   0.349340  -0.043072
     5  C   -0.058745   0.003237  -0.004692   0.349340   4.896435   0.397378
     6  H   -0.003554  -0.000016   0.002571  -0.043072   0.397378   0.593630
     7  H   -0.000531  -0.000030  -0.000276  -0.045815   0.400285  -0.035009
     8  H    0.003676  -0.000103   0.000081  -0.041409   0.406181  -0.027608
     9  C   -0.044053  -0.002233   0.001919   0.698837  -0.045929  -0.000425
    10  H    0.003080   0.000060  -0.000114  -0.036535  -0.006482   0.000248
    11  C   -0.007063  -0.002136   0.000138  -0.050684   0.003424  -0.000114
    12  H   -0.001828  -0.001334   0.000004  -0.000420   0.000092  -0.000001
    13  H    0.000227   0.000172   0.000028  -0.001413  -0.000116   0.000021
    14  H    0.000232  -0.000034  -0.000010   0.000594  -0.000100  -0.000004
    15  C   -0.000101  -0.000042  -0.000000   0.000002  -0.000000  -0.000000
    16  H   -0.000003  -0.000002   0.000002   0.000000  -0.000000  -0.000000
    17  H    0.000022  -0.000005  -0.000001  -0.000000   0.000000  -0.000000
    18  H   -0.000004   0.000001   0.000000   0.000000  -0.000000   0.000000
    19  C   -0.003607   0.001046   0.000615   0.000006  -0.000002   0.000000
    20  C    0.000597   0.000160  -0.000016  -0.000017  -0.000000  -0.000000
    21  H   -0.000053  -0.000052  -0.000012  -0.000027  -0.000000  -0.000000
    22  H   -0.000041   0.000014   0.000000   0.000001  -0.000000   0.000000
    23  H    0.000077  -0.000076  -0.000001  -0.000002   0.000000  -0.000000
    24  C   -0.063058  -0.000805  -0.000607   0.006129  -0.000158   0.000001
    25  H    0.000004   0.000213   0.001004  -0.000155   0.000010  -0.000002
    26  C    0.326227  -0.039857  -0.044610  -0.057352  -0.000187   0.000027
    27  H   -0.045141   0.004291  -0.002605  -0.001850  -0.000392   0.000093
    28  H   -0.040302  -0.002145   0.004204  -0.001437   0.000317   0.000012
               7          8          9         10         11         12
     1  C   -0.000531   0.003676  -0.044053   0.003080  -0.007063  -0.001828
     2  H   -0.000030  -0.000103  -0.002233   0.000060  -0.002136  -0.001334
     3  H   -0.000276   0.000081   0.001919  -0.000114   0.000138   0.000004
     4  C   -0.045815  -0.041409   0.698837  -0.036535  -0.050684  -0.000420
     5  C    0.400285   0.406181  -0.045929  -0.006482   0.003424   0.000092
     6  H   -0.035009  -0.027608  -0.000425   0.000248  -0.000114  -0.000001
     7  H    0.594761  -0.028078  -0.001035   0.000123  -0.000100   0.000000
     8  H   -0.028078   0.571023  -0.002738   0.002222   0.000137   0.000004
     9  C   -0.001035  -0.002738   4.939961   0.404870   0.337720  -0.041943
    10  H    0.000123   0.002222   0.404870   0.559370  -0.043636   0.003315
    11  C   -0.000100   0.000137   0.337720  -0.043636   4.906209   0.408021
    12  H    0.000000   0.000004  -0.041943   0.003315   0.408021   0.573906
    13  H   -0.000005  -0.000004  -0.044355  -0.000222   0.400030  -0.026857
    14  H    0.000015  -0.000009  -0.042844  -0.002647   0.403012  -0.030018
    15  C   -0.000000   0.000000  -0.000000   0.000000  -0.000000   0.000000
    16  H   -0.000000   0.000000  -0.000000   0.000000   0.000000  -0.000000
    17  H    0.000000  -0.000000  -0.000000  -0.000000   0.000000  -0.000000
    18  H    0.000000   0.000000   0.000000   0.000000  -0.000000  -0.000000
    19  C    0.000000   0.000000   0.000001   0.000000   0.000007  -0.000013
    20  C   -0.000000  -0.000000   0.000010  -0.000000  -0.000097   0.000010
    21  H    0.000000   0.000000  -0.000032   0.000000   0.000040   0.000571
    22  H    0.000000   0.000000   0.000000   0.000000   0.000002  -0.000006
    23  H    0.000000  -0.000000   0.000000  -0.000000  -0.000003   0.000034
    24  C   -0.000086   0.000003   0.000070   0.000002  -0.000032   0.000003
    25  H    0.000012  -0.000000  -0.000002  -0.000000   0.000000  -0.000001
    26  C    0.000810  -0.000097  -0.004366  -0.000116   0.000690  -0.000212
    27  H   -0.000187  -0.000025   0.000514   0.000004  -0.000030  -0.000008
    28  H   -0.000009  -0.000010   0.001216  -0.000044   0.000070  -0.000251
              13         14         15         16         17         18
     1  C    0.000227   0.000232  -0.000101  -0.000003   0.000022  -0.000004
     2  H    0.000172  -0.000034  -0.000042  -0.000002  -0.000005   0.000001
     3  H    0.000028  -0.000010  -0.000000   0.000002  -0.000001   0.000000
     4  C   -0.001413   0.000594   0.000002   0.000000  -0.000000   0.000000
     5  C   -0.000116  -0.000100  -0.000000  -0.000000   0.000000  -0.000000
     6  H    0.000021  -0.000004  -0.000000  -0.000000  -0.000000   0.000000
     7  H   -0.000005   0.000015  -0.000000  -0.000000   0.000000   0.000000
     8  H   -0.000004  -0.000009   0.000000   0.000000  -0.000000   0.000000
     9  C   -0.044355  -0.042844  -0.000000  -0.000000  -0.000000   0.000000
    10  H   -0.000222  -0.002647   0.000000   0.000000  -0.000000   0.000000
    11  C    0.400030   0.403012  -0.000000   0.000000   0.000000  -0.000000
    12  H   -0.026857  -0.030018   0.000000  -0.000000  -0.000000  -0.000000
    13  H    0.584251  -0.033277   0.000000  -0.000000  -0.000000   0.000000
    14  H   -0.033277   0.586784  -0.000000  -0.000000   0.000000  -0.000000
    15  C    0.000000  -0.000000   4.903258   0.405428   0.396989   0.399262
    16  H   -0.000000  -0.000000   0.405428   0.568031  -0.027367  -0.027569
    17  H   -0.000000   0.000000   0.396989  -0.027367   0.594308  -0.034903
    18  H    0.000000  -0.000000   0.399262  -0.027569  -0.034903   0.593081
    19  C   -0.000000   0.000000   0.352277  -0.040395  -0.044308  -0.045762
    20  C    0.000002  -0.000004  -0.065380   0.003695  -0.002141  -0.001106
    21  H   -0.000008   0.000042   0.003678  -0.000108  -0.000072  -0.000023
    22  H    0.000000  -0.000000  -0.001685  -0.000079  -0.000371   0.002553
    23  H   -0.000000   0.000000  -0.003429   0.000010   0.002847  -0.000507
    24  C    0.000002  -0.000004  -0.044864  -0.002387  -0.000547  -0.001136
    25  H    0.000000   0.000000  -0.006747   0.002177   0.000235   0.000150
    26  C   -0.000050   0.000091   0.003153   0.000146  -0.000086  -0.000124
    27  H   -0.000000   0.000000  -0.000102  -0.000011  -0.000002   0.000012
    28  H    0.000023  -0.000079   0.000071   0.000006  -0.000004   0.000004
              19         20         21         22         23         24
     1  C   -0.003607   0.000597  -0.000053  -0.000041   0.000077  -0.063058
     2  H    0.001046   0.000160  -0.000052   0.000014  -0.000076  -0.000805
     3  H    0.000615  -0.000016  -0.000012   0.000000  -0.000001  -0.000607
     4  C    0.000006  -0.000017  -0.000027   0.000001  -0.000002   0.006129
     5  C   -0.000002  -0.000000  -0.000000  -0.000000   0.000000  -0.000158
     6  H    0.000000  -0.000000  -0.000000   0.000000  -0.000000   0.000001
     7  H    0.000000  -0.000000   0.000000   0.000000   0.000000  -0.000086
     8  H    0.000000  -0.000000   0.000000   0.000000  -0.000000   0.000003
     9  C    0.000001   0.000010  -0.000032   0.000000   0.000000   0.000070
    10  H    0.000000  -0.000000   0.000000   0.000000  -0.000000   0.000002
    11  C    0.000007  -0.000097   0.000040   0.000002  -0.000003  -0.000032
    12  H   -0.000013   0.000010   0.000571  -0.000006   0.000034   0.000003
    13  H   -0.000000   0.000002  -0.000008   0.000000  -0.000000   0.000002
    14  H    0.000000  -0.000004   0.000042  -0.000000   0.000000  -0.000004
    15  C    0.352277  -0.065380   0.003678  -0.001685  -0.003429  -0.044864
    16  H   -0.040395   0.003695  -0.000108  -0.000079   0.000010  -0.002387
    17  H   -0.044308  -0.002141  -0.000072  -0.000371   0.002847  -0.000547
    18  H   -0.045762  -0.001106  -0.000023   0.002553  -0.000507  -0.001136
    19  C    4.918244   0.348393  -0.037056  -0.043834  -0.043928   0.698173
    20  C    0.348393   4.909231   0.406147   0.398268   0.402442  -0.043319
    21  H   -0.037056   0.406147   0.568178  -0.026273  -0.030011  -0.002871
    22  H   -0.043834   0.398268  -0.026273   0.582541  -0.033094  -0.000843
    23  H   -0.043928   0.402442  -0.030011  -0.033094   0.586184   0.000449
    24  C    0.698173  -0.043319  -0.002871  -0.000843   0.000449   4.961481
    25  H   -0.036139   0.003365   0.000059  -0.000126  -0.000110   0.402023
    26  C   -0.048266  -0.007534  -0.001944   0.000188   0.000286   0.339919
    27  H    0.000915   0.000169   0.000031   0.000032  -0.000012  -0.043347
    28  H    0.000822  -0.002066  -0.001170   0.000056  -0.000043  -0.043815
              25         26         27         28
     1  C    0.000004   0.326227  -0.045141  -0.040302
     2  H    0.000213  -0.039857   0.004291  -0.002145
     3  H    0.001004  -0.044610  -0.002605   0.004204
     4  C   -0.000155  -0.057352  -0.001850  -0.001437
     5  C    0.000010  -0.000187  -0.000392   0.000317
     6  H   -0.000002   0.000027   0.000093   0.000012
     7  H    0.000012   0.000810  -0.000187  -0.000009
     8  H   -0.000000  -0.000097  -0.000025  -0.000010
     9  C   -0.000002  -0.004366   0.000514   0.001216
    10  H   -0.000000  -0.000116   0.000004  -0.000044
    11  C    0.000000   0.000690  -0.000030   0.000070
    12  H   -0.000001  -0.000212  -0.000008  -0.000251
    13  H    0.000000  -0.000050  -0.000000   0.000023
    14  H    0.000000   0.000091   0.000000  -0.000079
    15  C   -0.006747   0.003153  -0.000102   0.000071
    16  H    0.002177   0.000146  -0.000011   0.000006
    17  H    0.000235  -0.000086  -0.000002  -0.000004
    18  H    0.000150  -0.000124   0.000012   0.000004
    19  C   -0.036139  -0.048266   0.000915   0.000822
    20  C    0.003365  -0.007534   0.000169  -0.002066
    21  H    0.000059  -0.001944   0.000031  -0.001170
    22  H   -0.000126   0.000188   0.000032   0.000056
    23  H   -0.000110   0.000286  -0.000012  -0.000043
    24  C    0.402023   0.339919  -0.043347  -0.043815
    25  H    0.558501  -0.041276  -0.003487   0.003231
    26  C   -0.041276   4.982324   0.413777   0.414872
    27  H   -0.003487   0.413777   0.588502  -0.029601
    28  H    0.003231   0.414872  -0.029601   0.571259
 Mulliken charges:
               1
     1  C   -0.234036
     2  H    0.126389
     3  H    0.115624
     4  C    0.015505
     5  C   -0.339894
     6  H    0.115824
     7  H    0.115154
     8  H    0.116753
     9  C   -0.155164
    10  H    0.116500
    11  C   -0.355605
    12  H    0.116931
    13  H    0.121552
    14  H    0.118259
    15  C   -0.341768
    16  H    0.118424
    17  H    0.115406
    18  H    0.116070
    19  C    0.022810
    20  C   -0.350808
    21  H    0.120964
    22  H    0.122696
    23  H    0.118887
    24  C   -0.160377
    25  H    0.117061
    26  C   -0.236432
    27  H    0.118462
    28  H    0.124812
 Sum of Mulliken charges =  -0.00000
 Mulliken charges with hydrogens summed into heavy atoms:
               1
     1  C    0.007977
     4  C    0.015505
     5  C    0.007836
     9  C   -0.038664
    11  C    0.001137
    15  C    0.008133
    19  C    0.022810
    20  C    0.011740
    24  C   -0.043316
    26  C    0.006842
 Electronic spatial extent (au):  <R**2>=           2423.6419
 Charge=             -0.0000 electrons
 Dipole moment (field-independent basis, Debye):
    X=             -0.2949    Y=              0.1262    Z=             -0.0060  Tot=              0.3208
 Quadrupole moment (field-independent basis, Debye-Ang):
   XX=            -64.5114   YY=            -63.6030   ZZ=            -67.0546
   XY=             -0.6106   XZ=             -0.8629   YZ=             -0.4850
 Traceless Quadrupole moment (field-independent basis, Debye-Ang):
   XX=              0.5450   YY=              1.4533   ZZ=             -1.9983
   XY=             -0.6106   XZ=             -0.8629   YZ=             -0.4850
 Octapole moment (field-independent basis, Debye-Ang**2):
  XXX=             -1.3708  YYY=             -2.7184  ZZZ=              0.1846  XYY=              0.5714
  XXY=              4.5324  XXZ=             -2.6522  XZZ=             -1.5753  YZZ=              1.2282
  YYZ=              1.3704  XYZ=              0.7518
 Hexadecapole moment (field-independent basis, Debye-Ang**3):
 XXXX=          -2492.2687 YYYY=           -696.1112 ZZZZ=           -174.8241 XXXY=              2.3452
 XXXZ=            -11.9344 YYYX=              9.3613 YYYZ=             -3.0499 ZZZX=              0.8358
 ZZZY=             -0.0634 XXYY=           -530.4651 XXZZ=           -456.3128 YYZZ=           -139.1721
 XXYZ=             -4.2393 YYXZ=             -3.1997 ZZXY=             -4.6991
 N-N= 5.164367633383D+02 E-N=-1.937507261818D+03  KE= 3.886259341039D+02
 No NMR shielding tensors so no spin-rotation constants.
 Leave Link  601 at Fri Sep 17 15:13:07 2021, MaxMem=   524288000 cpu:               0.2 elap:               0.4
 (Enter /opt/gaussian/g16_legacy/l701.exe)
 ... and contract with generalized density number  2.
 Compute integral first derivatives.
 Leave Link  701 at Fri Sep 17 15:13:08 2021, MaxMem=   524288000 cpu:               0.2 elap:               0.3
 (Enter /opt/gaussian/g16_legacy/l702.exe)
 L702 exits ... SP integral derivatives will be done elsewhere.
 Leave Link  702 at Fri Sep 17 15:13:08 2021, MaxMem=   524288000 cpu:               0.0 elap:               0.0
 (Enter /opt/gaussian/g16_legacy/l703.exe)
 Integral derivatives from FoFJK, PRISM(SPDF).
 Compute integral first derivatives, UseDBF=F ICtDFT=           0.
 Calling FoFJK, ICntrl=  10002127 FMM=F ISym2X=0 I1Cent= 0 IOpClX= 0 NMat=1 NMatS=1 NMatT=0.
 FoFJK:  IHMeth= 1 ICntrl=10002127 DoSepK=F KAlg= 0 I1Cent=           0 FoldK=F
 IRaf=         0 NMat=       1 IRICut=       1 DoRegI=T DoRafI=F ISym2E= 0 IDoP0=0 IntGTp=1.
 FoFCou: FMM=F IPFlag=           0 FMFlag=      100000 FMFlg1=         800
         NFxFlg=           0 DoJE=F BraDBF=F KetDBF=F FulRan=T
         wScrn=  0.000000 ICntrl=  10002127 IOpCl=  0 I1Cent=           0 NGrid=           0
         NMat0=    1 NMatS0=      1 NMatT0=    0 NMatD0=    1 NMtDS0=    0 NMtDT0=    0
 Symmetry not used in FoFCou.
 Leave Link  703 at Fri Sep 17 15:13:28 2021, MaxMem=   524288000 cpu:              19.8 elap:              19.9
 (Enter /opt/gaussian/g16_legacy/l716.exe)
 Dipole        =-9.11287220D-02 6.69126703D-02-4.78255403D-03
 ***** Axes restored to original set *****
 -------------------------------------------------------------------
 Center     Atomic                   Forces (Hartrees/Bohr)
 Number     Number              X              Y              Z
 -------------------------------------------------------------------
      1        6          -0.008122868    0.004065371    0.002723060
      2        1           0.001019130   -0.004515366    0.000760682
      3        1           0.000383752   -0.003131945    0.002189588
      4        6          -0.004364639    0.003189338   -0.003493670
      5        6          -0.002797519   -0.001231786    0.000798226
      6        1           0.001615074   -0.002898996    0.000696616
      7        1          -0.000726056    0.002164072   -0.002493394
      8        1           0.003625419    0.001504257    0.001101230
      9        6           0.002314847   -0.002896762   -0.000813286
     10        1           0.002534739   -0.000547169   -0.002450379
     11        6           0.001720997    0.001079751    0.001851277
     12        1          -0.002832543   -0.000394375   -0.001767810
     13        1           0.001543877   -0.001108468    0.002866253
     14        1          -0.000251268    0.003281825   -0.000986575
     15        6           0.000150589    0.000113406   -0.003409747
     16        1          -0.002338574   -0.000365227    0.003648428
     17        1           0.002067129   -0.002608478    0.001181004
     18        1          -0.000429635    0.003337984    0.000131164
     19        6          -0.000690038    0.001976398   -0.004920825
     20        6          -0.004246140   -0.001065749    0.001326410
     21        1           0.002669602   -0.000818070   -0.002061252
     22        1          -0.000437873    0.003081396    0.000561044
     23        1           0.001881539   -0.003132315   -0.000196886
     24        6          -0.000804901   -0.005121888    0.000555378
     25        1           0.001569885    0.001689092    0.002492021
     26        6           0.007651684   -0.001701397    0.001037392
     27        1          -0.002024549    0.002633705    0.000691558
     28        1          -0.000681659    0.003421395   -0.002017507
 -------------------------------------------------------------------
 Cartesian Forces:  Max     0.008122868 RMS     0.002571840
 Leave Link  716 at Fri Sep 17 15:13:28 2021, MaxMem=   524288000 cpu:               0.0 elap:               0.2
 (Enter /opt/gaussian/g16_legacy/l103.exe)

 GradGradGradGradGradGradGradGradGradGradGradGradGradGradGradGradGradGrad
 Berny optimization.
 FormGI is forming the generalized inverse of G from B-inverse, IUseBI=4.
 Internal  Forces:  Max     0.004869675 RMS     0.001918104
 Search for a local minimum.
 Step number   1 out of a maximum of  138
 All quantities printed in internal units (Hartrees-Bohrs-Radians)
 RMS Force = .19181D-02 SwitMx=.10000D-02 MixMth= 1
 Mixed Optimization -- RFO/linear search
 Second derivative matrix not updated -- first step.
 ITU=  0
     Eigenvalues ---    0.00343   0.00570   0.00671   0.00681   0.00693
     Eigenvalues ---    0.00714   0.00819   0.01219   0.01287   0.01569
     Eigenvalues ---    0.01641   0.02779   0.02784   0.04017   0.04138
     Eigenvalues ---    0.05349   0.05399   0.06978   0.07035   0.07091
     Eigenvalues ---    0.07093   0.07269   0.07301   0.07347   0.07505
     Eigenvalues ---    0.09278   0.09362   0.12767   0.12843   0.15999
     Eigenvalues ---    0.15999   0.16000   0.16000   0.16000   0.16000
     Eigenvalues ---    0.16000   0.16000   0.16000   0.16000   0.16000
     Eigenvalues ---    0.16000   0.16000   0.16000   0.21859   0.21866
     Eigenvalues ---    0.22000   0.22000   0.24994   0.24997   0.24998
     Eigenvalues ---    0.24999   0.29242   0.30871   0.31635   0.31712
     Eigenvalues ---    0.31807   0.31969   0.32798   0.33857   0.33972
     Eigenvalues ---    0.34061   0.34196   0.34227   0.34229   0.34245
     Eigenvalues ---    0.34246   0.34248   0.34248   0.34261   0.34266
     Eigenvalues ---    0.34296   0.34333   0.34546   0.34554   0.34806
     Eigenvalues ---    0.34848   0.55490   0.55567
 RFO step:  Lambda=-2.95796969D-03 EMin= 3.42999525D-03
 Linear search not attempted -- first point.
 Iteration  1 RMS(Cart)=  0.03966571 RMS(Int)=  0.00072214
 Iteration  2 RMS(Cart)=  0.00093253 RMS(Int)=  0.00016575
 Iteration  3 RMS(Cart)=  0.00000043 RMS(Int)=  0.00016575
 ITry= 1 IFail=0 DXMaxC= 1.76D-01 DCOld= 1.00D+10 DXMaxT= 3.00D-01 DXLimC= 3.00D+00 Rises=F
 Variable       Old X    -DE/DX   Delta X   Delta X   Delta X     New X
                                 (Linear)    (Quad)   (Total)
    R1        2.07227  -0.00332   0.00000  -0.00968  -0.00968   2.06260
    R2        2.07572  -0.00283   0.00000  -0.00829  -0.00829   2.06743
    R3        2.86260  -0.00353   0.00000  -0.01133  -0.01133   2.85127
    R4        2.89501   0.00174   0.00000   0.00590   0.00590   2.90091
    R5        2.84817  -0.00044   0.00000  -0.00139  -0.00139   2.84678
    R6        2.54699  -0.00400   0.00000  -0.00716  -0.00716   2.53983
    R7        2.06913  -0.00217   0.00000  -0.00628  -0.00628   2.06285
    R8        2.06833  -0.00179   0.00000  -0.00518  -0.00518   2.06315
    R9        2.06949  -0.00368   0.00000  -0.01066  -0.01066   2.05882
   R10        2.05923  -0.00222   0.00000  -0.00631  -0.00631   2.05292
   R11        2.82707   0.00311   0.00000   0.00941   0.00941   2.83648
   R12        2.06405  -0.00290   0.00000  -0.00832  -0.00832   2.05572
   R13        2.06772  -0.00159   0.00000  -0.00458  -0.00458   2.06313
   R14        2.06884  -0.00257   0.00000  -0.00743  -0.00743   2.06141
   R15        2.06946  -0.00396   0.00000  -0.01146  -0.01146   2.05800
   R16        2.06914  -0.00200   0.00000  -0.00578  -0.00578   2.06336
   R17        2.06919  -0.00201   0.00000  -0.00583  -0.00583   2.06336
   R18        2.84674  -0.00075   0.00000  -0.00234  -0.00234   2.84440
   R19        2.84201  -0.00049   0.00000  -0.00153  -0.00153   2.84048
   R20        2.54632  -0.00329   0.00000  -0.00589  -0.00589   2.54043
   R21        2.06419  -0.00285   0.00000  -0.00817  -0.00817   2.05602
   R22        2.06892  -0.00189   0.00000  -0.00547  -0.00547   2.06345
   R23        2.07000  -0.00263   0.00000  -0.00763  -0.00763   2.06237
   R24        2.05991  -0.00193   0.00000  -0.00549  -0.00549   2.05442
   R25        2.84498  -0.00149   0.00000  -0.00464  -0.00464   2.84035
   R26        2.07377  -0.00238   0.00000  -0.00694  -0.00694   2.06683
   R27        2.06918  -0.00278   0.00000  -0.00804  -0.00804   2.06114
    A1        1.82990   0.00206   0.00000   0.02245   0.02229   1.85219
    A2        1.93014   0.00043   0.00000   0.00926   0.00930   1.93944
    A3        1.91837  -0.00277   0.00000  -0.02021  -0.02025   1.89812
    A4        1.90262  -0.00069   0.00000  -0.00270  -0.00269   1.89993
    A5        1.91998  -0.00194   0.00000  -0.01716  -0.01719   1.90278
    A6        1.95847   0.00282   0.00000   0.00903   0.00907   1.96755
    A7        2.00834   0.00237   0.00000   0.00966   0.00910   2.01743
    A8        2.17063  -0.00487   0.00000  -0.01889  -0.01942   2.15121
    A9        2.10404   0.00252   0.00000   0.01033   0.00975   2.11379
   A10        1.92476   0.00166   0.00000   0.00904   0.00906   1.93382
   A11        1.92802   0.00228   0.00000   0.01219   0.01221   1.94023
   A12        1.95928  -0.00262   0.00000  -0.01311  -0.01307   1.94621
   A13        1.89498  -0.00308   0.00000  -0.02474  -0.02473   1.87025
   A14        1.87760   0.00109   0.00000   0.01016   0.01019   1.88779
   A15        1.87705   0.00055   0.00000   0.00561   0.00565   1.88269
   A16        2.06961  -0.00193   0.00000  -0.01333  -0.01335   2.05626
   A17        2.22517  -0.00188   0.00000  -0.00840  -0.00842   2.21674
   A18        1.98828   0.00381   0.00000   0.02190   0.02189   2.01017
   A19        1.98123  -0.00299   0.00000  -0.01841  -0.01832   1.96291
   A20        1.91730   0.00394   0.00000   0.02324   0.02320   1.94050
   A21        1.91004   0.00238   0.00000   0.01559   0.01554   1.92558
   A22        1.89281  -0.00095   0.00000  -0.00758  -0.00749   1.88532
   A23        1.87266   0.00053   0.00000   0.00496   0.00503   1.87769
   A24        1.88717  -0.00309   0.00000  -0.01887  -0.01905   1.86812
   A25        1.87918   0.00092   0.00000   0.00936   0.00940   1.88858
   A26        1.87874   0.00093   0.00000   0.00798   0.00801   1.88675
   A27        1.96062  -0.00277   0.00000  -0.01384  -0.01381   1.94682
   A28        1.89482  -0.00313   0.00000  -0.02539  -0.02539   1.86943
   A29        1.92491   0.00221   0.00000   0.01238   0.01240   1.93731
   A30        1.92355   0.00173   0.00000   0.00869   0.00871   1.93226
   A31        1.99470   0.00146   0.00000   0.00581   0.00579   2.00049
   A32        2.10579   0.00183   0.00000   0.00727   0.00725   2.11304
   A33        2.18264  -0.00329   0.00000  -0.01297  -0.01299   2.16965
   A34        1.97973  -0.00222   0.00000  -0.01021  -0.01019   1.96954
   A35        1.92150   0.00232   0.00000   0.01177   0.01179   1.93330
   A36        1.92081   0.00000   0.00000  -0.00089  -0.00087   1.91993
   A37        1.88444   0.00023   0.00000   0.00326   0.00328   1.88772
   A38        1.86374   0.00200   0.00000   0.01695   0.01697   1.88071
   A39        1.89072  -0.00241   0.00000  -0.02166  -0.02164   1.86909
   A40        2.06718  -0.00168   0.00000  -0.01187  -0.01227   2.05491
   A41        2.22711  -0.00225   0.00000  -0.00992  -0.01033   2.21678
   A42        1.98877   0.00394   0.00000   0.02258   0.02216   2.01093
   A43        1.94458   0.00329   0.00000   0.01358   0.01361   1.95819
   A44        1.92084  -0.00238   0.00000  -0.01472  -0.01492   1.90592
   A45        1.92595  -0.00263   0.00000  -0.02484  -0.02491   1.90104
   A46        1.88068   0.00061   0.00000   0.01701   0.01705   1.89773
   A47        1.94660  -0.00053   0.00000  -0.00243  -0.00238   1.94422
   A48        1.84186   0.00155   0.00000   0.01191   0.01165   1.85352
    D1        2.64264   0.00174   0.00000   0.05213   0.05192   2.69456
    D2       -0.47857   0.00076   0.00000  -0.01007  -0.00984  -0.48841
    D3        0.63958  -0.00059   0.00000   0.02155   0.02130   0.66089
    D4       -2.48162  -0.00156   0.00000  -0.04066  -0.04046  -2.52208
[...]
                 (A) (A) (A) (A) (A) (A) (A) (A) (A) (A) (A) (A)
                 (A) (A) (A) (A) (A) (A) (A) (A) (A) (A) (A) (A)
                 (A) (A) (A) (A) (A) (A) (A) (A) (A) (A) (A) (A)
                 (A) (A) (A) (A) (A) (A) (A) (A) (A) (A) (A) (A)
                 (A) (A) (A) (A) (A) (A) (A) (A) (A) (A) (A) (A)
                 (A) (A) (A) (A) (A) (A) (A) (A) (A) (A) (A) (A)
                 (A) (A) (A) (A) (A) (A) (A) (A) (A) (A) (A) (A)
                 (A) (A) (A) (A) (A) (A) (A) (A) (A) (A) (A) (A)
                 (A) (A) (A) (A) (A) (A) (A) (A) (A) (A) (A) (A)
                 (A) (A) (A) (A) (A) (A) (A) (A) (A) (A) (A) (A)
                 (A) (A) (A) (A) (A) (A) (A) (A) (A)
 The electronic state is 1-A.
 Alpha  occ. eigenvalues --  -11.23020 -11.22460 -11.21868 -11.21730 -11.21712
 Alpha  occ. eigenvalues --  -11.21539 -11.21506 -11.21436 -11.21417 -11.21348
 Alpha  occ. eigenvalues --   -1.10821  -1.08492  -1.01823  -0.98143  -0.93838
 Alpha  occ. eigenvalues --   -0.91939  -0.86963  -0.82855  -0.70494  -0.69519
 Alpha  occ. eigenvalues --   -0.64988  -0.61512  -0.60591  -0.58878  -0.58366
 Alpha  occ. eigenvalues --   -0.56774  -0.55298  -0.54966  -0.53295  -0.52261
 Alpha  occ. eigenvalues --   -0.51859  -0.51173  -0.50832  -0.49581  -0.48519
 Alpha  occ. eigenvalues --   -0.46073  -0.44624  -0.33371  -0.31514
 Alpha virt. eigenvalues --    0.18142   0.19779   0.22152   0.24486   0.25192
 Alpha virt. eigenvalues --    0.27439   0.28535   0.28922   0.30318   0.30811
 Alpha virt. eigenvalues --    0.31477   0.32261   0.33202   0.33794   0.34383
 Alpha virt. eigenvalues --    0.35458   0.36114   0.36962   0.39185   0.40602
 Alpha virt. eigenvalues --    0.41328   0.42631   0.43685   0.44253   0.45395
 Alpha virt. eigenvalues --    0.51702   0.54378   0.61070   0.62576   0.70520
 Alpha virt. eigenvalues --    0.71073   0.72196   0.73768   0.76075   0.76177
 Alpha virt. eigenvalues --    0.76620   0.79010   0.79474   0.81070   0.82306
 Alpha virt. eigenvalues --    0.83713   0.85579   0.89117   0.91091   0.91343
 Alpha virt. eigenvalues --    0.92820   0.94745   0.97065   0.98284   0.98818
 Alpha virt. eigenvalues --    0.99710   1.00468   1.01911   1.03844   1.06577
 Alpha virt. eigenvalues --    1.08019   1.08221   1.09393   1.11664   1.12687
 Alpha virt. eigenvalues --    1.13026   1.13870   1.14856   1.15402   1.16045
 Alpha virt. eigenvalues --    1.16257   1.16619   1.18722   1.19116   1.20671
 Alpha virt. eigenvalues --    1.20953   1.23032   1.23885   1.25765   1.28153
 Alpha virt. eigenvalues --    1.34331   1.41723   1.42153   1.44890   1.46395
 Alpha virt. eigenvalues --    1.48456   1.54136   1.55360   1.57256   1.58165
 Alpha virt. eigenvalues --    1.61459   1.63397   1.66485   1.69046   1.69645
 Alpha virt. eigenvalues --    1.73917   1.82243   1.91111   1.93363   1.96231
 Alpha virt. eigenvalues --    1.98688   2.01467   2.02277   2.03942   2.08565
 Alpha virt. eigenvalues --    2.09706   2.10748   2.11744   2.13037   2.14903
 Alpha virt. eigenvalues --    2.15780   2.16940   2.19854   2.23666   2.28347
 Alpha virt. eigenvalues --    2.29590   2.30325   2.33235   2.35347   2.35688
 Alpha virt. eigenvalues --    2.35978   2.36098   2.38923   2.40264   2.41259
 Alpha virt. eigenvalues --    2.42195   2.43169   2.44154   2.45371   2.46084
 Alpha virt. eigenvalues --    2.47201   2.49167   2.49622   2.51174   2.54099
 Alpha virt. eigenvalues --    2.57315   2.58365   2.61888   2.63241   2.64107
 Alpha virt. eigenvalues --    2.67127   2.68175   2.71776   2.73352   2.73474
 Alpha virt. eigenvalues --    2.75815   2.77410   2.80796   2.82634   2.85354
 Alpha virt. eigenvalues --    2.87137   2.89441   2.92178   2.93739   2.94867
 Alpha virt. eigenvalues --    2.97869   2.99094   3.00960   3.02677   3.05807
 Alpha virt. eigenvalues --    3.06402   3.07703   3.09315   3.13762   3.17093
 Alpha virt. eigenvalues --    3.17589   3.19238   3.20046   3.21242   3.22334
 Alpha virt. eigenvalues --    3.24167   3.25050   3.26607   3.27420   3.37866
 Alpha virt. eigenvalues --    3.40355   3.46023   3.46902   3.56200   3.58183
 Alpha virt. eigenvalues --    3.59499   3.62406   3.67928   3.75494   3.78622
 Alpha virt. eigenvalues --    3.80005   3.81570   3.82569   3.83286   3.83898
 Alpha virt. eigenvalues --    3.84750   3.86481   3.87645   3.89820   3.91558
 Alpha virt. eigenvalues --    3.97645   4.59389   4.63170   4.74472   4.82572
 Alpha virt. eigenvalues --    4.88928   4.92582   4.93409   5.07840   5.10766
 Alpha virt. eigenvalues --    5.17766
          Condensed to atoms (all electrons):
               1          2          3          4          5          6
     1  C    5.004768   0.411714   0.414473   0.337355  -0.056085  -0.003698
     2  H    0.411714   0.572983  -0.028296  -0.038988   0.003071  -0.000034
     3  H    0.414473  -0.028296   0.587507  -0.046308  -0.004587   0.002378
     4  C    0.337355  -0.038988  -0.046308   4.952603   0.351934  -0.041506
     5  C   -0.056085   0.003071  -0.004587   0.351934   4.891804   0.397495
     6  H   -0.003698  -0.000034   0.002378  -0.041506   0.397495   0.591921
     7  H    0.000011  -0.000005  -0.000489  -0.045679   0.400946  -0.037541
     8  H    0.003801  -0.000108   0.000106  -0.042765   0.407087  -0.026764
     9  C   -0.047991  -0.001860   0.002531   0.697840  -0.046054  -0.000373
    10  H    0.003272   0.000031  -0.000118  -0.037842  -0.006525   0.000216
    11  C   -0.007749  -0.002811   0.000160  -0.050271   0.003364  -0.000105
    12  H   -0.001745  -0.001657   0.000030  -0.000691   0.000109   0.000002
    13  H    0.000152   0.000184   0.000017  -0.000627  -0.000106   0.000017
    14  H    0.000310  -0.000067  -0.000013  -0.000247  -0.000095  -0.000004
    15  C   -0.000099  -0.000043  -0.000004   0.000001  -0.000000  -0.000000
    16  H   -0.000003  -0.000002   0.000003   0.000000  -0.000000  -0.000000
    17  H    0.000024  -0.000007  -0.000002  -0.000000   0.000000  -0.000000
    18  H   -0.000005   0.000002   0.000000   0.000000  -0.000000   0.000000
    19  C   -0.004325   0.001388   0.000787   0.000041  -0.000003   0.000000
    20  C    0.000587   0.000200  -0.000015  -0.000018  -0.000000   0.000000
    21  H   -0.000302  -0.000131  -0.000016  -0.000011  -0.000000  -0.000000
    22  H   -0.000040   0.000022   0.000000   0.000001  -0.000000   0.000000
    23  H    0.000130  -0.000135  -0.000002  -0.000005   0.000000  -0.000000
    24  C   -0.061827  -0.000504  -0.000900   0.006443  -0.000149   0.000004
    25  H    0.000175   0.000111   0.001011  -0.000152   0.000010  -0.000001
    26  C    0.332330  -0.041801  -0.046074  -0.055544  -0.000661   0.000086
    27  H   -0.046841   0.004515  -0.001931  -0.002075  -0.000289   0.000058
    28  H   -0.042369  -0.003118   0.004477  -0.001813   0.000243   0.000006
               7          8          9         10         11         12
     1  C    0.000011   0.003801  -0.047991   0.003272  -0.007749  -0.001745
     2  H   -0.000005  -0.000108  -0.001860   0.000031  -0.002811  -0.001657
     3  H   -0.000489   0.000106   0.002531  -0.000118   0.000160   0.000030
     4  C   -0.045679  -0.042765   0.697840  -0.037842  -0.050271  -0.000691
     5  C    0.400946   0.407087  -0.046054  -0.006525   0.003364   0.000109
     6  H   -0.037541  -0.026764  -0.000373   0.000216  -0.000105   0.000002
     7  H    0.596034  -0.027466  -0.001011   0.000135  -0.000101  -0.000003
     8  H   -0.027466   0.568858  -0.002890   0.002385   0.000132   0.000005
     9  C   -0.001011  -0.002890   4.938971   0.404494   0.340494  -0.043903
    10  H    0.000135   0.002385   0.404494   0.558671  -0.041279   0.003299
    11  C   -0.000101   0.000132   0.340494  -0.041279   4.900974   0.409079
    12  H   -0.000003   0.000005  -0.043903   0.003299   0.409079   0.577164
    13  H   -0.000004  -0.000006  -0.041523  -0.001122   0.401144  -0.027132
    14  H    0.000017  -0.000006  -0.041805  -0.001264   0.402169  -0.029956
    15  C   -0.000000   0.000000  -0.000000   0.000000  -0.000000   0.000000
    16  H   -0.000000   0.000000  -0.000000   0.000000   0.000000  -0.000000
    17  H    0.000000  -0.000000   0.000000  -0.000000  -0.000000  -0.000000
    18  H    0.000000   0.000000   0.000000   0.000000   0.000000  -0.000000
    19  C    0.000000   0.000000  -0.000001   0.000000   0.000013  -0.000026
    20  C   -0.000000  -0.000000   0.000015  -0.000000  -0.000147  -0.000000
    21  H    0.000000   0.000000  -0.000045   0.000000   0.000074   0.000412
    22  H   -0.000000   0.000000   0.000000   0.000000   0.000003  -0.000008
    23  H    0.000000  -0.000000   0.000000  -0.000000  -0.000009   0.000079
    24  C   -0.000111   0.000004   0.000114   0.000002  -0.000031   0.000026
    25  H    0.000015  -0.000000  -0.000002  -0.000000   0.000000  -0.000002
    26  C    0.000609  -0.000109  -0.004911  -0.000113   0.000577  -0.000737
    27  H    0.000197  -0.000050   0.000760   0.000001  -0.000033  -0.000010
    28  H   -0.000015  -0.000005   0.001406  -0.000046  -0.000082  -0.000475
              13         14         15         16         17         18
     1  C    0.000152   0.000310  -0.000099  -0.000003   0.000024  -0.000005
     2  H    0.000184  -0.000067  -0.000043  -0.000002  -0.000007   0.000002
     3  H    0.000017  -0.000013  -0.000004   0.000003  -0.000002   0.000000
     4  C   -0.000627  -0.000247   0.000001   0.000000  -0.000000   0.000000
     5  C   -0.000106  -0.000095  -0.000000  -0.000000   0.000000  -0.000000
     6  H    0.000017  -0.000004  -0.000000  -0.000000  -0.000000   0.000000
     7  H   -0.000004   0.000017  -0.000000  -0.000000   0.000000   0.000000
     8  H   -0.000006  -0.000006   0.000000   0.000000  -0.000000   0.000000
     9  C   -0.041523  -0.041805  -0.000000  -0.000000   0.000000   0.000000
    10  H   -0.001122  -0.001264   0.000000   0.000000  -0.000000   0.000000
    11  C    0.401144   0.402169  -0.000000   0.000000  -0.000000   0.000000
    12  H   -0.027132  -0.029956   0.000000  -0.000000  -0.000000  -0.000000
    13  H    0.583648  -0.035462   0.000000  -0.000000  -0.000000   0.000000
    14  H   -0.035462   0.586720  -0.000000  -0.000000   0.000000  -0.000000
    15  C    0.000000  -0.000000   4.900112   0.406218   0.398238   0.398811
    16  H   -0.000000  -0.000000   0.406218   0.566018  -0.026703  -0.026549
    17  H   -0.000000   0.000000   0.398238  -0.026703   0.594542  -0.037806
    18  H    0.000000  -0.000000   0.398811  -0.026549  -0.037806   0.593607
    19  C   -0.000000   0.000001   0.353753  -0.041639  -0.043899  -0.044274
    20  C    0.000004  -0.000015  -0.064931   0.003785  -0.001975  -0.001201
    21  H   -0.000013   0.000114   0.003725  -0.000113  -0.000068  -0.000031
    22  H    0.000000  -0.000000  -0.002223  -0.000053  -0.000456   0.002766
    23  H   -0.000000   0.000000  -0.002632  -0.000032   0.002756  -0.000476
    24  C    0.000002  -0.000009  -0.044415  -0.002632  -0.000422  -0.001270
    25  H    0.000000   0.000000  -0.006963   0.002335   0.000182   0.000187
    26  C   -0.000037   0.000163   0.003126   0.000148  -0.000068  -0.000131
    27  H   -0.000000  -0.000000  -0.000094  -0.000010  -0.000002   0.000009
    28  H    0.000037  -0.000140   0.000051   0.000007  -0.000005   0.000007
              19         20         21         22         23         24
     1  C   -0.004325   0.000587  -0.000302  -0.000040   0.000130  -0.061827
     2  H    0.001388   0.000200  -0.000131   0.000022  -0.000135  -0.000504
     3  H    0.000787  -0.000015  -0.000016   0.000000  -0.000002  -0.000900
     4  C    0.000041  -0.000018  -0.000011   0.000001  -0.000005   0.006443
     5  C   -0.000003  -0.000000  -0.000000  -0.000000   0.000000  -0.000149
     6  H    0.000000   0.000000  -0.000000   0.000000  -0.000000   0.000004
     7  H    0.000000  -0.000000   0.000000  -0.000000   0.000000  -0.000111
     8  H    0.000000  -0.000000   0.000000   0.000000  -0.000000   0.000004
     9  C   -0.000001   0.000015  -0.000045   0.000000   0.000000   0.000114
    10  H    0.000000  -0.000000   0.000000   0.000000  -0.000000   0.000002
    11  C    0.000013  -0.000147   0.000074   0.000003  -0.000009  -0.000031
    12  H   -0.000026  -0.000000   0.000412  -0.000008   0.000079   0.000026
    13  H   -0.000000   0.000004  -0.000013   0.000000  -0.000000   0.000002
    14  H    0.000001  -0.000015   0.000114  -0.000000   0.000000  -0.000009
    15  C    0.353753  -0.064931   0.003725  -0.002223  -0.002632  -0.044415
    16  H   -0.041639   0.003785  -0.000113  -0.000053  -0.000032  -0.002632
    17  H   -0.043899  -0.001975  -0.000068  -0.000456   0.002756  -0.000422
    18  H   -0.044274  -0.001201  -0.000031   0.002766  -0.000476  -0.001270
    19  C    4.914192   0.350333  -0.037848  -0.043537  -0.043385   0.697734
    20  C    0.350333   4.907254   0.407154   0.399852   0.401208  -0.044248
    21  H   -0.037848   0.407154   0.568221  -0.026060  -0.028659  -0.003253
    22  H   -0.043537   0.399852  -0.026060   0.584669  -0.035759  -0.000365
    23  H   -0.043385   0.401208  -0.028659  -0.035759   0.587442  -0.000031
    24  C    0.697734  -0.044248  -0.003253  -0.000365  -0.000031   4.962747
    25  H   -0.038449   0.003528   0.000061  -0.000121  -0.000121   0.403391
    26  C   -0.050100  -0.008144  -0.002069   0.000117   0.000367   0.338699
    27  H    0.001583   0.000195   0.000058   0.000021  -0.000014  -0.041394
    28  H    0.000438  -0.002693  -0.001675   0.000113  -0.000076  -0.044060
              25         26         27         28
     1  C    0.000175   0.332330  -0.046841  -0.042369
     2  H    0.000111  -0.041801   0.004515  -0.003118
     3  H    0.001011  -0.046074  -0.001931   0.004477
     4  C   -0.000152  -0.055544  -0.002075  -0.001813
     5  C    0.000010  -0.000661  -0.000289   0.000243
     6  H   -0.000001   0.000086   0.000058   0.000006
     7  H    0.000015   0.000609   0.000197  -0.000015
     8  H   -0.000000  -0.000109  -0.000050  -0.000005
     9  C   -0.000002  -0.004911   0.000760   0.001406
    10  H   -0.000000  -0.000113   0.000001  -0.000046
    11  C    0.000000   0.000577  -0.000033  -0.000082
    12  H   -0.000002  -0.000737  -0.000010  -0.000475
    13  H    0.000000  -0.000037  -0.000000   0.000037
    14  H    0.000000   0.000163  -0.000000  -0.000140
    15  C   -0.006963   0.003126  -0.000094   0.000051
    16  H    0.002335   0.000148  -0.000010   0.000007
    17  H    0.000182  -0.000068  -0.000002  -0.000005
    18  H    0.000187  -0.000131   0.000009   0.000007
    19  C   -0.038449  -0.050100   0.001583   0.000438
    20  C    0.003528  -0.008144   0.000195  -0.002693
    21  H    0.000061  -0.002069   0.000058  -0.001675
    22  H   -0.000121   0.000117   0.000021   0.000113
    23  H   -0.000121   0.000367  -0.000014  -0.000076
    24  C    0.403391   0.338699  -0.041394  -0.044060
    25  H    0.557389  -0.039113  -0.003424   0.003152
    26  C   -0.039113   4.979543   0.413482   0.415850
    27  H   -0.003424   0.413482   0.585267  -0.028362
    28  H    0.003152   0.415850  -0.028362   0.575347
 Mulliken charges:
               1
     1  C   -0.236021
     2  H    0.125346
     3  H    0.115272
     4  C    0.018322
     5  C   -0.341505
     6  H    0.117845
     7  H    0.114461
     8  H    0.117792
     9  C   -0.154256
    10  H    0.115801
    11  C   -0.355567
    12  H    0.116140
    13  H    0.120830
    14  H    0.119588
    15  C   -0.342631
    16  H    0.119222
    17  H    0.115672
    18  H    0.116356
    19  C    0.027222
    20  C   -0.350727
    21  H    0.120474
    22  H    0.121058
    23  H    0.119352
    24  C   -0.163543
    25  H    0.116803
    26  C   -0.235486
    27  H    0.118380
    28  H    0.123802
 Sum of Mulliken charges =  -0.00000
 Mulliken charges with hydrogens summed into heavy atoms:
               1
     1  C    0.004596
     4  C    0.018322
     5  C    0.008593
     9  C   -0.038454
    11  C    0.000991
    15  C    0.008618
    19  C    0.027222
    20  C    0.010156
    24  C   -0.046740
    26  C    0.006696
 Electronic spatial extent (au):  <R**2>=           2384.0059
 Charge=             -0.0000 electrons
 Dipole moment (field-independent basis, Debye):
    X=             -0.3027    Y=              0.1253    Z=              0.0460  Tot=              0.3308
 Quadrupole moment (field-independent basis, Debye-Ang):
   XX=            -64.3023   YY=            -63.2901   ZZ=            -67.3956
   XY=             -0.7521   XZ=             -1.2367   YZ=             -0.3487
 Traceless Quadrupole moment (field-independent basis, Debye-Ang):
   XX=              0.6937   YY=              1.7059   ZZ=             -2.3996
   XY=             -0.7521   XZ=             -1.2367   YZ=             -0.3487
 Octapole moment (field-independent basis, Debye-Ang**2):
  XXX=             -2.6682  YYY=             -2.9989  ZZZ=              0.9000  XYY=              0.6415
  XXY=              4.0909  XXZ=             -2.0918  XZZ=             -1.2120  YZZ=              1.4955
  YYZ=              0.6110  XYZ=              0.3641
 Hexadecapole moment (field-independent basis, Debye-Ang**3):
 XXXX=          -2435.7163 YYYY=           -693.4924 ZZZZ=           -166.6414 XXXY=             -2.3047
 XXXZ=            -14.7514 YYYX=             11.0526 YYYZ=             -1.4214 ZZZX=             -2.8119
 ZZZY=             -0.6411 XXYY=           -520.1246 XXZZ=           -449.2340 YYZZ=           -138.3649
 XXYZ=             -4.2785 YYXZ=             -0.5785 ZZXY=             -5.9188
 N-N= 5.190880030055D+02 E-N=-1.942888744994D+03  KE= 3.887471636171D+02
 No NMR shielding tensors so no spin-rotation constants.
 Leave Link  601 at Fri Sep 17 15:57:41 2021, MaxMem=   524288000 cpu:               0.1 elap:               0.2
 (Enter /opt/gaussian/g16_legacy/l9999.exe)
 1\1\GINC-TRUENO93\FOpt\RMP2-FC\6-31G(d,p)\C10H18\JRAMOS\17-Sep-2021\0\
 \#p opt mp2/6-31g(d,p)\\Conformer number 3244. Energy MM = 23.242 kcal
 /mol\\0,1\C,-0.741009857,0.2343830626,-0.780901071\H,-0.5679482764,1.1
 469618225,-0.2083931786\H,-0.534563802,0.4853105779,-1.8253641115\C,-2
 .1675827697,-0.2373004501,-0.6524718417\C,-2.7187385312,-0.9682952647,
 -1.8463416787\H,-2.7579960114,-0.3126330003,-2.7189188365\H,-2.0835225
 107,-1.815538332,-2.1142165257\H,-3.722787439,-1.3455628028,-1.6564098
 895\C,-2.9043616875,-0.0771492057,0.4626335823\H,-3.914109531,-0.47833
 66417,0.4616002455\C,-2.483877472,0.6024577059,1.7304149831\H,-1.46316
 4292,0.9749626129,1.6817349297\H,-3.1396934088,1.4448543425,1.95852662
 11\H,-2.5461025202,-0.086031694,2.5752914861\C,3.9038281677,0.59023770
 81,-0.0471155542\H,4.1134058517,0.3529674631,-1.0890073547\H,4.0486863
 034,1.6634407743,0.0959211776\H,4.6460756585,0.0850346543,0.5750845663
 \C,2.5105921764,0.180552133,0.3433973903\C,2.1462826947,0.4734704332,1
 .7725025141\H,1.1239368927,0.1950493495,2.0154725712\H,2.8155989671,-0
 .055322823,2.454829763\H,2.2630112187,1.5395151527,1.9792839\C,1.68643
 25974,-0.4038922255,-0.5465192545\H,2.0594115843,-0.5419973584,-1.5582
 733723\C,0.2678728578,-0.8329795986,-0.3153101246\H,0.0778235863,-1.76
 27193289,-0.8581793245\H,0.0825995524,-1.0513390668,0.7371283877\\Vers
 ion=EM64L-G16RevA.03\State=1-A\HF=-389.1567534\MP2=-390.5738646\RMSD=5
 .144e-09\RMSF=3.197e-06\Dipole=0.081931,0.0448281,0.0692331\PG=C01 [X(
 C10H18)]\\@


 CHARLIE BROWN -- WHICH DO YOU THINK LASTS LONGER IN LIFE, THE GOOD THINGS 
                  OR THE BAD THINGS?
 LINUS --         GOOD THINGS LAST EIGHT SECONDS ..
                  BAD THINGS LAST THREE WEEKS
 CHARLIE BROWN -- WHAT ABOUT IN BETWEEN?
 SNOOPY --        IN BETWEEN YOU SHOULD TAKE A NAP ...
 Job cpu time:       0 days  0 hours 47 minutes 56.6 seconds.
 Elapsed time:       0 days  0 hours 47 minutes 59.3 seconds.
 File lengths (MBytes):  RWF=     32 Int=      0 D2E=      0 Chk=      7 Scr=      1
 Normal termination of Gaussian 16 at Fri Sep 17 15:57:41 2021.
