 Entering Gaussian System, Link 0=/opt/gaussian/g16_legacy/g16
 Input=01-IsoP_497_gaussian.com
 Output=01-IsoP_497_gaussian.log
 Initial command:
 /opt/gaussian/g16_legacy/l1.exe "/scratch-local/jramos/2661422/Gau-22359.inp" -scrdir="/scratch-local/jramos/2661422/"
 Entering Link 1 = /opt/gaussian/g16_legacy/l1.exe PID=     22360.
  
 Copyright (c) 1988,1990,1992,1993,1995,1998,2003,2009,2016,
            Gaussian, Inc.  All Rights Reserved.
  
 This is part of the Gaussian(R) 16 program.  It is based on
 the Gaussian(R) 09 system (copyright 2009, Gaussian, Inc.),
 the Gaussian(R) 03 system (copyright 2003, Gaussian, Inc.),
 the Gaussian(R) 98 system (copyright 1998, Gaussian, Inc.),
 the Gaussian(R) 94 system (copyright 1995, Gaussian, Inc.),
 the Gaussian 92(TM) system (copyright 1992, Gaussian, Inc.),
 the Gaussian 90(TM) system (copyright 1990, Gaussian, Inc.),
 the Gaussian 88(TM) system (copyright 1988, Gaussian, Inc.),
 the Gaussian 86(TM) system (copyright 1986, Carnegie Mellon
 University), and the Gaussian 82(TM) system (copyright 1983,
 Carnegie Mellon University). Gaussian is a federally registered
 trademark of Gaussian, Inc.
  
 This software contains proprietary and confidential information,
 including trade secrets, belonging to Gaussian, Inc.
  
 This software is provided under written license and may be
 used, copied, transmitted, or stored only in accord with that
 written license.
  
 The following legend is applicable only to US Government
 contracts under FAR:
  
                    RESTRICTED RIGHTS LEGEND
  
 Use, reproduction and disclosure by the US Government is
 subject to restrictions as set forth in subparagraphs (a)
 and (c) of the Commercial Computer Software - Restricted
 Rights clause in FAR 52.227-19.
  
 Gaussian, Inc.
 340 Quinnipiac St., Bldg. 40, Wallingford CT 06492
  
  
 ---------------------------------------------------------------
 Warning -- This program may not be used in any manner that
 competes with the business of Gaussian, Inc. or will provide
 assistance to any competitor of Gaussian, Inc.  The licensee
 of this program is prohibited from giving any competitor of
 Gaussian, Inc. access to this program.  By using this program,
 the user acknowledges that Gaussian, Inc. is engaged in the
 business of creating and licensing software in the field of
 computational chemistry and represents and warrants to the
 licensee that it is not a competitor of Gaussian, Inc. and that
 it will not use this program in any manner prohibited above.
 ---------------------------------------------------------------
  

 Cite this work as:
 Gaussian 16, Revision A.03,
 M. J. Frisch, G. W. Trucks, H. B. Schlegel, G. E. Scuseria, 
 M. A. Robb, J. R. Cheeseman, G. Scalmani, V. Barone, 
 G. A. Petersson, H. Nakatsuji, X. Li, M. Caricato, A. V. Marenich, 
 J. Bloino, B. G. Janesko, R. Gomperts, B. Mennucci, H. P. Hratchian, 
 J. V. Ortiz, A. F. Izmaylov, J. L. Sonnenberg, D. Williams-Young, 
 F. Ding, F. Lipparini, F. Egidi, J. Goings, B. Peng, A. Petrone, 
 T. Henderson, D. Ranasinghe, V. G. Zakrzewski, J. Gao, N. Rega, 
 G. Zheng, W. Liang, M. Hada, M. Ehara, K. Toyota, R. Fukuda, 
 J. Hasegawa, M. Ishida, T. Nakajima, Y. Honda, O. Kitao, H. Nakai, 
 T. Vreven, K. Throssell, J. A. Montgomery, Jr., J. E. Peralta, 
 F. Ogliaro, M. J. Bearpark, J. J. Heyd, E. N. Brothers, K. N. Kudin, 
 V. N. Staroverov, T. A. Keith, R. Kobayashi, J. Normand, 
 K. Raghavachari, A. P. Rendell, J. C. Burant, S. S. Iyengar, 
 J. Tomasi, M. Cossi, J. M. Millam, M. Klene, C. Adamo, R. Cammi, 
 J. W. Ochterski, R. L. Martin, K. Morokuma, O. Farkas, 
 J. B. Foresman, and D. J. Fox, Gaussian, Inc., Wallingford CT, 2016.
 
 ******************************************
 Gaussian 16:  EM64L-G16RevA.03 25-Dec-2016
                17-Sep-2021 
 ******************************************
 %chk=01-IsoP_497_gaussian.chk
 %nproc=1
 Will use up to    1 processors via shared memory.
 %mem=4000Mb
 ---------------------
 #p opt mp2/6-31g(d,p)
 ---------------------
 1/18=20,19=15,38=1/1,3;
 2/9=110,12=2,17=6,18=5,40=1/2;
 3/5=1,6=6,7=101,11=9,25=1,30=1,71=1/1,2,3;
 4//1;
 5/5=2,38=5/2;
 8/6=4,10=2/1;
 9/15=2,16=-3/6;
 10/5=1/2;
 6/7=2,8=2,9=2,10=2/1;
 7/12=2/1,2,3,16;
 1/18=20,19=15/3(2);
 2/9=110/2;
 99//99;
 2/9=110/2;
 3/5=1,6=6,7=101,11=9,25=1,30=1,71=1/1,2,3;
 4/5=5,16=3,69=1/1;
 5/5=2,38=5/2;
 8/6=4,10=2/1;
 9/15=2,16=-3/6;
 10/5=1/2;
 7/12=2/1,2,3,16;
 1/18=20,19=15/3(-8);
 2/9=110/2;
 6/7=2,8=2,9=2,10=2/1;
 99//99;
 Leave Link    1 at Fri Sep 17 15:57:57 2021, MaxMem=   524288000 cpu:               0.0 elap:               0.1
 (Enter /opt/gaussian/g16_legacy/l101.exe)
 -------------------------------------------------
 Conformer number 497. Energy MM = 23.242 kcal/mol
 -------------------------------------------------
 Symbolic Z-matrix:
 Charge =  0 Multiplicity = 1
 C                     0.854     0.4315    0.6439 
 H                     0.8545    1.1995    1.4291 
 H                     0.9122    0.9916   -0.297 
 C                     2.0737   -0.4503    0.8153 
 C                     2.4655   -0.7277    2.244 
 H                     3.3569   -1.3601    2.3144 
 H                     1.6546   -1.2407    2.7706 
 H                     2.6828    0.2095    2.7668 
 C                     2.7995   -0.9516   -0.2038 
 H                     3.6747   -1.5579    0.0282 
 C                     2.5395   -0.7974   -1.669 
 H                     2.5345   -1.7839   -2.1439 
 H                     1.5815   -0.3237   -1.8942 
 H                     3.3359   -0.2032   -2.1271 
 C                    -2.175     0.0158   -1.89 
 H                    -1.2355   -0.5398   -1.9318 
 H                    -2.9896   -0.6812   -2.1119 
 H                    -2.1354    0.7647   -2.6884 
 C                    -2.4148    0.6863   -0.5654 
 C                    -3.6094    1.604    -0.5427 
 H                    -3.7579    2.0695    0.4373 
 H                    -3.4853    2.407    -1.2767 
 H                    -4.5195    1.0462   -0.7867 
 C                    -1.6513    0.5253    0.533 
 H                    -1.9137    1.0807    1.4336 
 C                    -0.4511   -0.3692    0.6946 
 H                    -0.5421   -0.8798    1.6617 
 H                    -0.439    -1.1651   -0.0572 
 
 ITRead=  0  0  0  0  0  0  0  0  0  0  0  0  0  0  0  0  0  0  0  0
 ITRead=  0  0  0  0  0  0  0  0
 MicOpt= -1 -1 -1 -1 -1 -1 -1 -1 -1 -1 -1 -1 -1 -1 -1 -1 -1 -1 -1 -1
 MicOpt= -1 -1 -1 -1 -1 -1 -1 -1
 NAtoms=     28 NQM=       28 NQMF=       0 NMMI=      0 NMMIF=      0
                NMic=       0 NMicF=      0.
                    Isotopes and Nuclear Properties:
 (Nuclear quadrupole moments (NQMom) in fm**2, nuclear magnetic moments (NMagM)
  in nuclear magnetons)

  Atom         1           2           3           4           5           6           7           8           9          10
 IAtWgt=          12           1           1          12          12           1           1           1          12           1
 AtmWgt=  12.0000000   1.0078250   1.0078250  12.0000000  12.0000000   1.0078250   1.0078250   1.0078250  12.0000000   1.0078250
 NucSpn=           0           1           1           0           0           1           1           1           0           1
 AtZEff=  -0.0000000  -0.0000000  -0.0000000  -0.0000000  -0.0000000  -0.0000000  -0.0000000  -0.0000000  -0.0000000  -0.0000000
 NQMom=    0.0000000   0.0000000   0.0000000   0.0000000   0.0000000   0.0000000   0.0000000   0.0000000   0.0000000   0.0000000
 NMagM=    0.0000000   2.7928460   2.7928460   0.0000000   0.0000000   2.7928460   2.7928460   2.7928460   0.0000000   2.7928460
 AtZNuc=   6.0000000   1.0000000   1.0000000   6.0000000   6.0000000   1.0000000   1.0000000   1.0000000   6.0000000   1.0000000

  Atom        11          12          13          14          15          16          17          18          19          20
 IAtWgt=          12           1           1           1          12           1           1           1          12          12
 AtmWgt=  12.0000000   1.0078250   1.0078250   1.0078250  12.0000000   1.0078250   1.0078250   1.0078250  12.0000000  12.0000000
 NucSpn=           0           1           1           1           0           1           1           1           0           0
 AtZEff=  -0.0000000  -0.0000000  -0.0000000  -0.0000000  -0.0000000  -0.0000000  -0.0000000  -0.0000000  -0.0000000  -0.0000000
 NQMom=    0.0000000   0.0000000   0.0000000   0.0000000   0.0000000   0.0000000   0.0000000   0.0000000   0.0000000   0.0000000
 NMagM=    0.0000000   2.7928460   2.7928460   2.7928460   0.0000000   2.7928460   2.7928460   2.7928460   0.0000000   0.0000000
 AtZNuc=   6.0000000   1.0000000   1.0000000   1.0000000   6.0000000   1.0000000   1.0000000   1.0000000   6.0000000   6.0000000

  Atom        21          22          23          24          25          26          27          28
 IAtWgt=           1           1           1          12           1          12           1           1
 AtmWgt=   1.0078250   1.0078250   1.0078250  12.0000000   1.0078250  12.0000000   1.0078250   1.0078250
 NucSpn=           1           1           1           0           1           0           1           1
 AtZEff=  -0.0000000  -0.0000000  -0.0000000  -0.0000000  -0.0000000  -0.0000000  -0.0000000  -0.0000000
 NQMom=    0.0000000   0.0000000   0.0000000   0.0000000   0.0000000   0.0000000   0.0000000   0.0000000
 NMagM=    2.7928460   2.7928460   2.7928460   0.0000000   2.7928460   0.0000000   2.7928460   2.7928460
 AtZNuc=   1.0000000   1.0000000   1.0000000   6.0000000   1.0000000   6.0000000   1.0000000   1.0000000
 Leave Link  101 at Fri Sep 17 15:57:57 2021, MaxMem=   524288000 cpu:               0.1 elap:               0.1
 (Enter /opt/gaussian/g16_legacy/l103.exe)

 GradGradGradGradGradGradGradGradGradGradGradGradGradGradGradGradGradGrad
 Berny optimization.
 Initialization pass.
                           ----------------------------
                           !    Initial Parameters    !
                           ! (Angstroms and Degrees)  !
 --------------------------                            --------------------------
 ! Name  Definition              Value          Derivative Info.                !
 --------------------------------------------------------------------------------
 ! R1    R(1,2)                  1.0983         estimate D2E/DX2                !
 ! R2    R(1,3)                  1.0965         estimate D2E/DX2                !
 ! R3    R(1,4)                  1.5148         estimate D2E/DX2                !
 ! R4    R(1,26)                 1.532          estimate D2E/DX2                !
 ! R5    R(4,5)                  1.5072         estimate D2E/DX2                !
 ! R6    R(4,9)                  1.3478         estimate D2E/DX2                !
 ! R7    R(5,6)                  1.0952         estimate D2E/DX2                !
 ! R8    R(5,7)                  1.0945         estimate D2E/DX2                !
 ! R9    R(5,8)                  1.0949         estimate D2E/DX2                !
 ! R10   R(9,10)                 1.0897         estimate D2E/DX2                !
 ! R11   R(9,11)                 1.4961         estimate D2E/DX2                !
 ! R12   R(11,12)                1.0949         estimate D2E/DX2                !
 ! R13   R(11,13)                1.0922         estimate D2E/DX2                !
 ! R14   R(11,14)                1.0942         estimate D2E/DX2                !
 ! R15   R(15,16)                1.0923         estimate D2E/DX2                !
 ! R16   R(15,17)                1.0948         estimate D2E/DX2                !
 ! R17   R(15,18)                1.0954         estimate D2E/DX2                !
 ! R18   R(15,19)                1.5039         estimate D2E/DX2                !
 ! R19   R(19,20)                1.5066         estimate D2E/DX2                !
 ! R20   R(19,24)                1.3473         estimate D2E/DX2                !
 ! R21   R(20,21)                1.0951         estimate D2E/DX2                !
 ! R22   R(20,22)                1.095          estimate D2E/DX2                !
 ! R23   R(20,23)                1.095          estimate D2E/DX2                !
 ! R24   R(24,25)                1.0901         estimate D2E/DX2                !
 ! R25   R(24,26)                1.5056         estimate D2E/DX2                !
 ! R26   R(26,27)                1.0974         estimate D2E/DX2                !
 ! R27   R(26,28)                1.0949         estimate D2E/DX2                !
 ! A1    A(2,1,3)              104.847          estimate D2E/DX2                !
 ! A2    A(2,1,4)              109.013          estimate D2E/DX2                !
 ! A3    A(2,1,26)             110.0102         estimate D2E/DX2                !
 ! A4    A(3,1,4)              110.5911         estimate D2E/DX2                !
 ! A5    A(3,1,26)             109.9122         estimate D2E/DX2                !
 ! A6    A(4,1,26)             112.2066         estimate D2E/DX2                !
 ! A7    A(1,4,5)              115.0689         estimate D2E/DX2                !
 ! A8    A(1,4,9)              124.3708         estimate D2E/DX2                !
 ! A9    A(5,4,9)              120.5498         estimate D2E/DX2                !
 ! A10   A(4,5,6)              112.2585         estimate D2E/DX2                !
 ! A11   A(4,5,7)              110.4708         estimate D2E/DX2                !
 ! A12   A(4,5,8)              110.283          estimate D2E/DX2                !
 ! A13   A(6,5,7)              107.5436         estimate D2E/DX2                !
 ! A14   A(6,5,8)              107.5791         estimate D2E/DX2                !
 ! A15   A(7,5,8)              108.571          estimate D2E/DX2                !
 ! A16   A(4,9,10)             118.5854         estimate D2E/DX2                !
 ! A17   A(4,9,11)             127.4874         estimate D2E/DX2                !
 ! A18   A(10,9,11)            113.9192         estimate D2E/DX2                !
 ! A19   A(9,11,12)            109.4345         estimate D2E/DX2                !
 ! A20   A(9,11,13)            113.5207         estimate D2E/DX2                !
 ! A21   A(9,11,14)            109.8477         estimate D2E/DX2                !
 ! A22   A(12,11,13)           107.2983         estimate D2E/DX2                !
 ! A23   A(12,11,14)           108.1217         estimate D2E/DX2                !
 ! A24   A(13,11,14)           108.4559         estimate D2E/DX2                !
 ! A25   A(16,15,17)           107.9621         estimate D2E/DX2                !
 ! A26   A(16,15,18)           106.7846         estimate D2E/DX2                !
 ! A27   A(16,15,19)           113.4307         estimate D2E/DX2                !
 ! A28   A(17,15,18)           108.3264         estimate D2E/DX2                !
 ! A29   A(17,15,19)           110.1038         estimate D2E/DX2                !
 ! A30   A(18,15,19)           110.0557         estimate D2E/DX2                !
 ! A31   A(15,19,20)           114.2857         estimate D2E/DX2                !
 ! A32   A(15,19,24)           125.0587         estimate D2E/DX2                !
 ! A33   A(20,19,24)           120.6527         estimate D2E/DX2                !
 ! A34   A(19,20,21)           112.3306         estimate D2E/DX2                !
 ! A35   A(19,20,22)           110.288          estimate D2E/DX2                !
 ! A36   A(19,20,23)           110.2056         estimate D2E/DX2                !
 ! A37   A(21,20,22)           107.6699         estimate D2E/DX2                !
 ! A38   A(21,20,23)           107.6536         estimate D2E/DX2                !
 ! A39   A(22,20,23)           108.5668         estimate D2E/DX2                !
 ! A40   A(19,24,25)           118.4383         estimate D2E/DX2                !
 ! A41   A(19,24,26)           127.6065         estimate D2E/DX2                !
 ! A42   A(25,24,26)           113.9478         estimate D2E/DX2                !
 ! A43   A(1,26,24)            111.4099         estimate D2E/DX2                !
 ! A44   A(1,26,27)            110.0592         estimate D2E/DX2                !
 ! A45   A(1,26,28)            110.3521         estimate D2E/DX2                !
 ! A46   A(24,26,27)           107.7537         estimate D2E/DX2                !
 ! A47   A(24,26,28)           111.5302         estimate D2E/DX2                !
 ! A48   A(27,26,28)           105.5338         estimate D2E/DX2                !
 ! D1    D(2,1,4,5)             36.6445         estimate D2E/DX2                !
 ! D2    D(2,1,4,9)           -142.1784         estimate D2E/DX2                !
 ! D3    D(3,1,4,5)            151.4148         estimate D2E/DX2                !
 ! D4    D(3,1,4,9)            -27.4082         estimate D2E/DX2                !
 ! D5    D(26,1,4,5)           -85.4689         estimate D2E/DX2                !
 ! D6    D(26,1,4,9)            95.7082         estimate D2E/DX2                !
 ! D7    D(2,1,26,24)           58.0245         estimate D2E/DX2                !
 ! D8    D(2,1,26,27)          -61.4376         estimate D2E/DX2                !
 ! D9    D(2,1,26,28)         -177.5116         estimate D2E/DX2                !
 ! D10   D(3,1,26,24)          -56.9337         estimate D2E/DX2                !
 ! D11   D(3,1,26,27)         -176.3959         estimate D2E/DX2                !
 ! D12   D(3,1,26,28)           67.5301         estimate D2E/DX2                !
 ! D13   D(4,1,26,24)          179.5687         estimate D2E/DX2                !
 ! D14   D(4,1,26,27)           60.1065         estimate D2E/DX2                !
 ! D15   D(4,1,26,28)          -55.9675         estimate D2E/DX2                !
 ! D16   D(1,4,5,6)           -179.4374         estimate D2E/DX2                !
 ! D17   D(1,4,5,7)             60.5334         estimate D2E/DX2                !
 ! D18   D(1,4,5,8)            -59.4921         estimate D2E/DX2                !
 ! D19   D(9,4,5,6)             -0.5655         estimate D2E/DX2                !
 ! D20   D(9,4,5,7)           -120.5948         estimate D2E/DX2                !
 ! D21   D(9,4,5,8)            119.3798         estimate D2E/DX2                !
 ! D22   D(1,4,9,10)           178.6046         estimate D2E/DX2                !
 ! D23   D(1,4,9,11)            -2.4926         estimate D2E/DX2                !
 ! D24   D(5,4,9,10)            -0.1573         estimate D2E/DX2                !
 ! D25   D(5,4,9,11)           178.7455         estimate D2E/DX2                !
 ! D26   D(4,9,11,12)         -127.7516         estimate D2E/DX2                !
 ! D27   D(4,9,11,13)           -7.92           estimate D2E/DX2                !
 ! D28   D(4,9,11,14)          113.6924         estimate D2E/DX2                !
 ! D29   D(10,9,11,12)          51.1945         estimate D2E/DX2                !
 ! D30   D(10,9,11,13)         171.026          estimate D2E/DX2                !
 ! D31   D(10,9,11,14)         -67.3615         estimate D2E/DX2                !
 ! D32   D(16,15,19,20)        172.3401         estimate D2E/DX2                !
 ! D33   D(16,15,19,24)         -7.0431         estimate D2E/DX2                !
 ! D34   D(17,15,19,20)        -66.5598         estimate D2E/DX2                !
 ! D35   D(17,15,19,24)        114.0569         estimate D2E/DX2                !
 ! D36   D(18,15,19,20)         52.7853         estimate D2E/DX2                !
 ! D37   D(18,15,19,24)       -126.5979         estimate D2E/DX2                !
 ! D38   D(15,19,20,21)        179.6304         estimate D2E/DX2                !
 ! D39   D(15,19,20,22)        -60.2577         estimate D2E/DX2                !
 ! D40   D(15,19,20,23)         59.596          estimate D2E/DX2                !
 ! D41   D(24,19,20,21)         -0.9564         estimate D2E/DX2                !
 ! D42   D(24,19,20,22)        119.1555         estimate D2E/DX2                !
 ! D43   D(24,19,20,23)       -120.9909         estimate D2E/DX2                !
 ! D44   D(15,19,24,25)        178.8287         estimate D2E/DX2                !
 ! D45   D(15,19,24,26)         -2.2265         estimate D2E/DX2                !
 ! D46   D(20,19,24,25)         -0.5179         estimate D2E/DX2                !
 ! D47   D(20,19,24,26)        178.4269         estimate D2E/DX2                !
 ! D48   D(19,24,26,1)         103.3703         estimate D2E/DX2                !
 ! D49   D(19,24,26,27)       -135.8075         estimate D2E/DX2                !
 ! D50   D(19,24,26,28)        -20.4284         estimate D2E/DX2                !
 ! D51   D(25,24,26,1)         -77.6449         estimate D2E/DX2                !
 ! D52   D(25,24,26,27)         43.1772         estimate D2E/DX2                !
 ! D53   D(25,24,26,28)        158.5563         estimate D2E/DX2                !
 --------------------------------------------------------------------------------
 Trust Radius=3.00D-01 FncErr=1.00D-07 GrdErr=1.00D-07 EigMax=2.50D+02 EigMin=1.00D-04
 Number of steps in this run=    138 maximum allowed number of steps=    168.
 GradGradGradGradGradGradGradGradGradGradGradGradGradGradGradGradGradGrad

 Leave Link  103 at Fri Sep 17 15:57:57 2021, MaxMem=   524288000 cpu:               0.0 elap:               0.1
 (Enter /opt/gaussian/g16_legacy/l202.exe)
                          Input orientation:                          
 ---------------------------------------------------------------------
 Center     Atomic      Atomic             Coordinates (Angstroms)
 Number     Number       Type             X           Y           Z
 ---------------------------------------------------------------------
      1          6           0        0.854000    0.431500    0.643900
      2          1           0        0.854500    1.199500    1.429100
      3          1           0        0.912200    0.991600   -0.297000
      4          6           0        2.073700   -0.450300    0.815300
      5          6           0        2.465500   -0.727700    2.244000
      6          1           0        3.356900   -1.360100    2.314400
      7          1           0        1.654600   -1.240700    2.770600
      8          1           0        2.682800    0.209500    2.766800
      9          6           0        2.799500   -0.951600   -0.203800
     10          1           0        3.674700   -1.557900    0.028200
     11          6           0        2.539500   -0.797400   -1.669000
     12          1           0        2.534500   -1.783900   -2.143900
     13          1           0        1.581500   -0.323700   -1.894200
     14          1           0        3.335900   -0.203200   -2.127100
     15          6           0       -2.175000    0.015800   -1.890000
     16          1           0       -1.235500   -0.539800   -1.931800
     17          1           0       -2.989600   -0.681200   -2.111900
     18          1           0       -2.135400    0.764700   -2.688400
     19          6           0       -2.414800    0.686300   -0.565400
     20          6           0       -3.609400    1.604000   -0.542700
     21          1           0       -3.757900    2.069500    0.437300
     22          1           0       -3.485300    2.407000   -1.276700
     23          1           0       -4.519500    1.046200   -0.786700
     24          6           0       -1.651300    0.525300    0.533000
     25          1           0       -1.913700    1.080700    1.433600
     26          6           0       -0.451100   -0.369200    0.694600
     27          1           0       -0.542100   -0.879800    1.661700
     28          1           0       -0.439000   -1.165100   -0.057200
 ---------------------------------------------------------------------
                    Distance matrix (angstroms):
                    1          2          3          4          5
     1  C    0.000000
     2  H    1.098346   0.000000
     3  H    1.096536   1.739532   0.000000
     4  C    1.514799   2.141270   2.159947   0.000000
     5  C    2.549705   2.640735   3.438810   1.507197   0.000000
     6  H    3.502129   3.687454   4.280942   2.172933   1.095208
     7  H    2.821359   2.897302   3.865810   2.150250   1.094548
     8  H    2.810782   2.472291   3.624027   2.148183   1.094935
     9  C    2.533087   3.328155   2.710464   1.347832   2.480607
    10  H    3.506158   4.185607   3.773210   2.099882   2.657286
    11  C    3.114581   4.052784   2.780469   2.551312   3.914320
    12  H    3.937500   4.948677   3.707600   3.278367   4.513755
    13  H    2.746186   3.727330   2.174632   2.756751   4.250808
    14  H    3.773740   4.557573   3.263608   3.211219   4.487673
    15  C    3.970931   4.647089   3.608412   5.058394   6.259152
    16  H    3.455961   4.323068   3.103284   4.301787   5.583011
    17  H    4.858580   5.554531   4.616943   5.853104   6.980984
    18  H    4.489071   5.107089   3.880482   5.609694   6.908264
    19  C    3.494622   3.863900   3.351742   4.831648   5.805984
    20  C    4.764947   4.896736   4.569493   6.193701   7.078625
    21  H    4.898505   4.797374   4.848804   6.363948   7.058272
    22  H    5.140120   5.254833   4.722412   6.591139   7.591686
    23  H    5.594549   5.814907   5.454003   6.948108   7.818062
    24  C    2.509507   2.745282   2.734569   3.860973   4.630936
    25  H    2.950466   2.770752   3.314910   4.315740   4.806709
    26  C    1.531985   2.169078   2.166480   2.528984   3.322005
    27  H    2.168990   2.515568   3.074676   2.782674   3.067224
    28  H    2.170834   3.077915   2.556286   2.754243   3.731348
                    6          7          8          9         10
     6  H    0.000000
     7  H    1.766409   0.000000
     8  H    1.767122   1.777720   0.000000
     9  C    2.611302   3.200223   3.191588   0.000000
    10  H    2.316642   3.420845   3.406978   1.089678   0.000000
    11  C    4.105149   4.548583   4.550901   1.496058   2.178882
    12  H    4.553283   5.022111   5.301944   2.127660   2.463565
    13  H    4.683854   4.754639   4.818930   2.176059   3.098444
    14  H    4.589747   5.281159   4.954505   2.132349   2.568135
    15  C    7.083219   6.161641   6.732126   5.340860   6.354134
    16  H    6.308189   5.563857   6.163714   4.408717   5.384068
    17  H    7.767310   6.761689   7.534665   6.101446   7.054185
    18  H    7.727104   6.941643   7.299487   5.785513   6.821411
    19  C    6.767091   5.603770   6.108717   5.477444   6.516963
    20  C    8.091863   6.839589   7.244943   6.907962   7.961259
    21  H    8.118253   6.759946   7.097097   7.248279   8.280636
    22  H    8.596670   7.490322   7.695736   7.206249   8.287870
    23  H    8.800271   7.483569   8.074686   7.609122   8.636568
    24  C    5.640052   4.365156   4.886104   4.746970   5.741152
    25  H    5.874737   4.461976   4.864589   5.387539   6.337789
    26  C    4.255173   3.082736   3.801347   3.422384   4.345034
    27  H    3.982324   2.487046   3.578799   3.827732   4.572695
    28  H    4.480108   3.519280   4.428333   3.248839   4.133293
                   11         12         13         14         15
    11  C    0.000000
    12  H    1.094869   0.000000
    13  H    1.092186   1.761461   0.000000
    14  H    1.094158   1.772325   1.773889   0.000000
    15  C    4.789222   5.048047   3.771813   5.520344   0.000000
    16  H    3.792894   3.975635   2.825527   4.587934   1.092291
    17  H    5.548028   5.633174   4.590224   6.343553   1.094816
    18  H    5.033291   5.347879   3.953570   5.584533   1.095382
    19  C    5.288136   5.752314   4.330846   6.025004   1.503875
    20  C    6.696585   7.196472   5.699827   7.349387   2.528853
    21  H    7.232763   7.817006   6.298610   7.878027   3.484190
    22  H    6.835224   7.386046   5.788825   7.352897   2.794792
    23  H    7.348932   7.720775   6.350227   8.066287   2.788490
    24  C    4.915399   5.478971   4.130750   5.699036   2.530767
    25  H    5.743203   6.386777   5.026233   6.471884   3.499801
    26  C    3.835837   4.355716   3.291720   4.725560   3.130529
    27  H    4.538349   4.976490   4.178917   5.463669   4.010366
    28  H    3.406547   3.684960   2.857436   4.411305   2.787001
                   16         17         18         19         20
    16  H    0.000000
    17  H    1.768982   0.000000
    18  H    1.756128   1.775567   0.000000
    19  C    2.181999   2.142922   2.142741   0.000000
    20  C    3.487245   2.840542   2.735165   1.506572   0.000000
    21  H    4.334003   3.828192   3.755664   2.173147   1.095054
    22  H    3.764889   3.237322   2.551916   2.147726   1.094973
    23  H    3.822474   2.660951   3.062619   2.146687   1.094970
    24  C    2.717088   3.200341   3.266356   1.347344   2.480903
    25  H    3.796300   4.102734   4.140035   2.098250   2.656126
    26  C    2.746337   3.797074   3.945540   2.560820   3.924193
    27  H    3.675547   4.502194   4.915929   3.304489   4.520727
    28  H    2.130619   3.310817   3.677651   2.754947   4.237341
                   21         22         23         24         25
    21  H    0.000000
    22  H    1.768053   0.000000
    23  H    1.767867   1.778046   0.000000
    24  C    2.613709   3.190512   3.199924   0.000000
    25  H    2.317631   3.402165   3.423612   1.090139   0.000000
    26  C    4.116842   4.560667   4.555160   1.505565   2.188042
    27  H    4.531986   5.300913   5.052113   2.116269   2.403513
    28  H    4.660715   4.850466   4.698138   2.162281   3.072595
                   26         27         28
    26  C    0.000000
    27  H    1.097395   0.000000
    28  H    1.094900   1.745464   0.000000
 Stoichiometry    C10H18
 Framework group  C1[X(C10H18)]
 Deg. of freedom    78
 Full point group                 C1      NOp   1
 Largest Abelian subgroup         C1      NOp   1
 Largest concise Abelian subgroup C1      NOp   1
                         Standard orientation:                         
 ---------------------------------------------------------------------
 Center     Atomic      Atomic             Coordinates (Angstroms)
 Number     Number       Type             X           Y           Z
 ---------------------------------------------------------------------
      1          6           0        0.793800   -0.586478    0.589180
      2          1           0        0.746012   -1.484300    1.220048
      3          1           0        0.484592    0.235280    1.246064
      4          6           0        2.220891   -0.386968    0.122035
      5          6           0        2.975653   -1.655017   -0.184602
      6          1           0        4.003289   -1.458193   -0.508183
      7          1           0        2.478729   -2.212237   -0.984982
      8          1           0        3.025217   -2.291738    0.704788
      9          6           0        2.820214    0.813941   -0.001588
     10          1           0        3.860352    0.846748   -0.324751
     11          6           0        2.215671    2.161847    0.234771
     12          1           0        2.388770    2.797199   -0.639930
     13          1           0        1.137435    2.131972    0.406195
     14          1           0        2.690803    2.635725    1.098988
     15          6           0       -2.465970    1.425896   -0.456067
     16          1           0       -1.439623    1.725956   -0.678944
     17          1           0       -3.076361    1.626190   -1.342593
     18          1           0       -2.815371    2.072705    0.355979
     19          6           0       -2.593367   -0.018253   -0.056266
     20          6           0       -3.965129   -0.407971    0.429683
     21          1           0       -4.023683   -1.466028    0.705779
     22          1           0       -4.237055    0.181209    1.311664
     23          1           0       -4.709111   -0.227405   -0.353162
     24          6           0       -1.596316   -0.923534   -0.097379
     25          1           0       -1.804040   -1.940140    0.236936
     26          6           0       -0.185944   -0.715592   -0.581464
     27          1           0        0.084231   -1.577170   -1.205133
     28          1           0       -0.111203    0.156995   -1.238588
 ---------------------------------------------------------------------
 Rotational constants (GHZ):           2.2181419           0.5802352           0.4854274
 Leave Link  202 at Fri Sep 17 15:57:58 2021, MaxMem=   524288000 cpu:               0.0 elap:               0.1
 (Enter /opt/gaussian/g16_legacy/l301.exe)
 Standard basis: 6-31G(d,p) (6D, 7F)
 Ernie: Thresh=  0.10000D-02 Tol=  0.10000D-05 Strict=F.
 There are   240 symmetry adapted cartesian basis functions of A   symmetry.
 There are   240 symmetry adapted basis functions of A   symmetry.
   240 basis functions,   406 primitive gaussians,   240 cartesian basis functions
    39 alpha electrons       39 beta electrons
       nuclear repulsion energy       516.4371103531 Hartrees.
 IExCor=    0 DFT=F Ex=HF Corr=None ExCW=0 ScaHFX=  1.000000
 ScaDFX=  1.000000  1.000000  1.000000  1.000000 ScalE2=  1.000000  1.000000
 IRadAn=      5 IRanWt=     -1 IRanGd=            0 ICorTp=0 IEmpDi=  4
 NAtoms=   28 NActive=   28 NUniq=   28 SFac= 1.00D+00 NAtFMM=   60 NAOKFM=F Big=F
 Integral buffers will be    131072 words long.
 Raffenetti 1 integral format.
 Two-electron integral symmetry is turned on.
 Leave Link  301 at Fri Sep 17 15:57:58 2021, MaxMem=   524288000 cpu:               0.1 elap:               0.1
 (Enter /opt/gaussian/g16_legacy/l302.exe)
 NPDir=0 NMtPBC=     1 NCelOv=     1 NCel=       1 NClECP=     1 NCelD=      1
         NCelK=      1 NCelE2=     1 NClLst=     1 CellRange=     0.0.
 One-electron integrals computed using PRISM.
 One-electron integral symmetry used in STVInt
 NBasis=   240 RedAO= T EigKep=  2.10D-03  NBF=   240
 NBsUse=   240 1.00D-06 EigRej= -1.00D+00 NBFU=   240
 Leave Link  302 at Fri Sep 17 15:57:58 2021, MaxMem=   524288000 cpu:               0.2 elap:               0.3
 (Enter /opt/gaussian/g16_legacy/l303.exe)
 DipDrv:  MaxL=1.
 Leave Link  303 at Fri Sep 17 15:57:58 2021, MaxMem=   524288000 cpu:               0.0 elap:               0.1
 (Enter /opt/gaussian/g16_legacy/l401.exe)
 ExpMin= 1.61D-01 ExpMax= 3.05D+03 ExpMxC= 4.57D+02 IAcc=3 IRadAn=         5 AccDes= 0.00D+00
 Harris functional with IExCor=  205 and IRadAn=       5 diagonalized for initial guess.
 HarFok:  IExCor=  205 AccDes= 0.00D+00 IRadAn=         5 IDoV= 1 UseB2=F ITyADJ=14
 ICtDFT=  3500011 ScaDFX=  1.000000  1.000000  1.000000  1.000000
 FoFCou: FMM=F IPFlag=           0 FMFlag=      100000 FMFlg1=           0
         NFxFlg=           0 DoJE=T BraDBF=F KetDBF=T FulRan=T
         wScrn=  0.000000 ICntrl=       500 IOpCl=  0 I1Cent=   200000004 NGrid=           0
         NMat0=    1 NMatS0=      1 NMatT0=    0 NMatD0=    1 NMtDS0=    0 NMtDT0=    0
 Petite list used in FoFCou.
 Harris En= -390.109902694487    
 JPrj=0 DoOrth=F DoCkMO=F.
 Leave Link  401 at Fri Sep 17 15:58:06 2021, MaxMem=   524288000 cpu:               7.1 elap:               7.3
 (Enter /opt/gaussian/g16_legacy/l502.exe)
 Keep R1 ints in memory in canonical form, NReq=425198025.
 FoFCou: FMM=F IPFlag=           0 FMFlag=           0 FMFlg1=           0
         NFxFlg=           0 DoJE=F BraDBF=F KetDBF=F FulRan=T
         wScrn=  0.000000 ICntrl=       600 IOpCl=  0 I1Cent=           0 NGrid=           0
         NMat0=    1 NMatS0=  28920 NMatT0=    0 NMatD0=    1 NMtDS0=    0 NMtDT0=    0
 Symmetry not used in FoFCou.
 Two-electron integral symmetry not used.
 Closed shell SCF:
 Using DIIS extrapolation, IDIIS=  1040.
 NGot=   524288000 LenX=   105970886 LenY=   105912845
 Requested convergence on RMS density matrix=1.00D-08 within 128 cycles.
 Requested convergence on MAX density matrix=1.00D-06.
 Requested convergence on             energy=1.00D-06.
 No special actions if energy rises.

 Cycle   1  Pass 1  IDiag  1:
 E= -388.533175660200    
 DIIS: error= 5.21D-02 at cycle   1 NSaved=   1.
 NSaved= 1 IEnMin= 1 EnMin= -388.533175660200     IErMin= 1 ErrMin= 5.21D-02
 ErrMax= 5.21D-02  0.00D+00 EMaxC= 1.00D-01 BMatC= 8.07D-01 BMatP= 8.07D-01
 IDIUse=3 WtCom= 4.79D-01 WtEn= 5.21D-01
 Coeff-Com:  0.100D+01
 Coeff-En:   0.100D+01
 Coeff:      0.100D+01
 Gap=     0.508 Goal=   None    Shift=    0.000
 GapD=    0.508 DampG=2.000 DampE=0.500 DampFc=1.0000 IDamp=-1.
 RMSDP=4.00D-03 MaxDP=1.14D-01              OVMax= 1.33D-01

 Cycle   2  Pass 1  IDiag  1:
 E= -389.073873031865     Delta-E=       -0.540697371665 Rises=F Damp=F
 DIIS: error= 1.59D-02 at cycle   2 NSaved=   2.
 NSaved= 2 IEnMin= 2 EnMin= -389.073873031865     IErMin= 2 ErrMin= 1.59D-02
 ErrMax= 1.59D-02  0.00D+00 EMaxC= 1.00D-01 BMatC= 8.66D-02 BMatP= 8.07D-01
 IDIUse=3 WtCom= 8.41D-01 WtEn= 1.59D-01
 Coeff-Com:  0.183D+00 0.817D+00
 Coeff-En:   0.000D+00 0.100D+01
 Coeff:      0.154D+00 0.846D+00
 Gap=     0.549 Goal=   None    Shift=    0.000
 RMSDP=1.63D-03 MaxDP=3.04D-02 DE=-5.41D-01 OVMax= 4.61D-02

 Cycle   3  Pass 1  IDiag  1:
 E= -389.151436738501     Delta-E=       -0.077563706636 Rises=F Damp=F
 DIIS: error= 3.43D-03 at cycle   3 NSaved=   3.
 NSaved= 3 IEnMin= 3 EnMin= -389.151436738501     IErMin= 3 ErrMin= 3.43D-03
 ErrMax= 3.43D-03  0.00D+00 EMaxC= 1.00D-01 BMatC= 3.14D-03 BMatP= 8.66D-02
 IDIUse=3 WtCom= 9.66D-01 WtEn= 3.43D-02
 Coeff-Com: -0.245D-01 0.106D+00 0.919D+00
 Coeff-En:   0.000D+00 0.000D+00 0.100D+01
 Coeff:     -0.236D-01 0.102D+00 0.921D+00
 Gap=     0.499 Goal=   None    Shift=    0.000
 RMSDP=2.59D-04 MaxDP=7.14D-03 DE=-7.76D-02 OVMax= 1.01D-02

 Cycle   4  Pass 1  IDiag  1:
 E= -389.155062381081     Delta-E=       -0.003625642580 Rises=F Damp=F
 DIIS: error= 5.31D-04 at cycle   4 NSaved=   4.
 NSaved= 4 IEnMin= 4 EnMin= -389.155062381081     IErMin= 4 ErrMin= 5.31D-04
 ErrMax= 5.31D-04  0.00D+00 EMaxC= 1.00D-01 BMatC= 9.29D-05 BMatP= 3.14D-03
 IDIUse=3 WtCom= 9.95D-01 WtEn= 5.31D-03
 Coeff-Com: -0.424D-02-0.189D-02 0.950D-01 0.911D+00
 Coeff-En:   0.000D+00 0.000D+00 0.000D+00 0.100D+01
 Coeff:     -0.422D-02-0.188D-02 0.945D-01 0.912D+00
 Gap=     0.499 Goal=   None    Shift=    0.000
 RMSDP=7.39D-05 MaxDP=1.49D-03 DE=-3.63D-03 OVMax= 3.14D-03

 Cycle   5  Pass 1  IDiag  1:
 E= -389.155186720948     Delta-E=       -0.000124339867 Rises=F Damp=F
 DIIS: error= 1.63D-04 at cycle   5 NSaved=   5.
 NSaved= 5 IEnMin= 5 EnMin= -389.155186720948     IErMin= 5 ErrMin= 1.63D-04
 ErrMax= 1.63D-04  0.00D+00 EMaxC= 1.00D-01 BMatC= 1.60D-05 BMatP= 9.29D-05
 IDIUse=3 WtCom= 9.98D-01 WtEn= 1.63D-03
 Coeff-Com:  0.241D-02-0.152D-01-0.102D+00 0.176D+00 0.939D+00
 Coeff-En:   0.000D+00 0.000D+00 0.000D+00 0.000D+00 0.100D+01
 Coeff:      0.241D-02-0.152D-01-0.102D+00 0.175D+00 0.939D+00
 Gap=     0.500 Goal=   None    Shift=    0.000
 RMSDP=3.00D-05 MaxDP=6.56D-04 DE=-1.24D-04 OVMax= 9.23D-04

 Cycle   6  Pass 1  IDiag  1:
 E= -389.155208204782     Delta-E=       -0.000021483833 Rises=F Damp=F
 DIIS: error= 3.58D-05 at cycle   6 NSaved=   6.
 NSaved= 6 IEnMin= 6 EnMin= -389.155208204782     IErMin= 6 ErrMin= 3.58D-05
 ErrMax= 3.58D-05  0.00D+00 EMaxC= 1.00D-01 BMatC= 5.50D-07 BMatP= 1.60D-05
 IDIUse=1 WtCom= 1.00D+00 WtEn= 0.00D+00
 Coeff-Com:  0.720D-03-0.335D-02-0.261D-01-0.433D-02 0.177D+00 0.856D+00
 Coeff:      0.720D-03-0.335D-02-0.261D-01-0.433D-02 0.177D+00 0.856D+00
 Gap=     0.500 Goal=   None    Shift=    0.000
 RMSDP=5.30D-06 MaxDP=1.61D-04 DE=-2.15D-05 OVMax= 3.24D-04

 Cycle   7  Pass 1  IDiag  1:
 E= -389.155209045940     Delta-E=       -0.000000841158 Rises=F Damp=F
 DIIS: error= 1.03D-05 at cycle   7 NSaved=   7.
 NSaved= 7 IEnMin= 7 EnMin= -389.155209045940     IErMin= 7 ErrMin= 1.03D-05
 ErrMax= 1.03D-05  0.00D+00 EMaxC= 1.00D-01 BMatC= 5.44D-08 BMatP= 5.50D-07
 IDIUse=1 WtCom= 1.00D+00 WtEn= 0.00D+00
 Coeff-Com: -0.494D-04 0.463D-03 0.301D-02-0.105D-01-0.468D-01 0.145D+00
 Coeff-Com:  0.909D+00
 Coeff:     -0.494D-04 0.463D-03 0.301D-02-0.105D-01-0.468D-01 0.145D+00
 Coeff:      0.909D+00
 Gap=     0.500 Goal=   None    Shift=    0.000
 RMSDP=1.71D-06 MaxDP=4.10D-05 DE=-8.41D-07 OVMax= 8.42D-05

 Cycle   8  Pass 1  IDiag  1:
 E= -389.155209134882     Delta-E=       -0.000000088942 Rises=F Damp=F
 DIIS: error= 3.51D-06 at cycle   8 NSaved=   8.
 NSaved= 8 IEnMin= 8 EnMin= -389.155209134882     IErMin= 8 ErrMin= 3.51D-06
 ErrMax= 3.51D-06  0.00D+00 EMaxC= 1.00D-01 BMatC= 5.10D-09 BMatP= 5.44D-08
 IDIUse=1 WtCom= 1.00D+00 WtEn= 0.00D+00
 Coeff-Com: -0.581D-04 0.249D-03 0.208D-02 0.315D-02-0.171D-01-0.803D-01
 Coeff-Com: -0.123D+00 0.121D+01
 Coeff:     -0.581D-04 0.249D-03 0.208D-02 0.315D-02-0.171D-01-0.803D-01
 Coeff:     -0.123D+00 0.121D+01
 Gap=     0.500 Goal=   None    Shift=    0.000
 RMSDP=7.85D-07 MaxDP=2.40D-05 DE=-8.89D-08 OVMax= 5.81D-05

 Cycle   9  Pass 1  IDiag  1:
 E= -389.155209150731     Delta-E=       -0.000000015849 Rises=F Damp=F
 DIIS: error= 1.46D-06 at cycle   9 NSaved=   9.
 NSaved= 9 IEnMin= 9 EnMin= -389.155209150731     IErMin= 9 ErrMin= 1.46D-06
 ErrMax= 1.46D-06  0.00D+00 EMaxC= 1.00D-01 BMatC= 7.39D-10 BMatP= 5.10D-09
 IDIUse=1 WtCom= 1.00D+00 WtEn= 0.00D+00
 Coeff-Com:  0.927D-05-0.689D-04-0.479D-03 0.144D-02 0.385D-02 0.668D-04
 Coeff-Com: -0.865D-01-0.120D+00 0.120D+01
 Coeff:      0.927D-05-0.689D-04-0.479D-03 0.144D-02 0.385D-02 0.668D-04
 Coeff:     -0.865D-01-0.120D+00 0.120D+01
 Gap=     0.500 Goal=   None    Shift=    0.000
 RMSDP=2.99D-07 MaxDP=1.24D-05 DE=-1.58D-08 OVMax= 2.71D-05

 Cycle  10  Pass 1  IDiag  1:
 E= -389.155209153164     Delta-E=       -0.000000002432 Rises=F Damp=F
 DIIS: error= 3.97D-07 at cycle  10 NSaved=  10.
 NSaved=10 IEnMin=10 EnMin= -389.155209153164     IErMin=10 ErrMin= 3.97D-07
 ErrMax= 3.97D-07  0.00D+00 EMaxC= 1.00D-01 BMatC= 1.22D-10 BMatP= 7.39D-10
 IDIUse=1 WtCom= 1.00D+00 WtEn= 0.00D+00
 Coeff-Com:  0.953D-05-0.465D-04-0.369D-03-0.134D-03 0.233D-02 0.142D-01
 Coeff-Com:  0.591D-02-0.211D+00 0.144D+00 0.105D+01
 Coeff:      0.953D-05-0.465D-04-0.369D-03-0.134D-03 0.233D-02 0.142D-01
 Coeff:      0.591D-02-0.211D+00 0.144D+00 0.105D+01
 Gap=     0.500 Goal=   None    Shift=    0.000
 RMSDP=1.24D-07 MaxDP=3.06D-06 DE=-2.43D-09 OVMax= 9.88D-06

 Cycle  11  Pass 1  IDiag  1:
 E= -389.155209153473     Delta-E=       -0.000000000310 Rises=F Damp=F
 DIIS: error= 1.55D-07 at cycle  11 NSaved=  11.
 NSaved=11 IEnMin=11 EnMin= -389.155209153473     IErMin=11 ErrMin= 1.55D-07
 ErrMax= 1.55D-07  0.00D+00 EMaxC= 1.00D-01 BMatC= 9.55D-12 BMatP= 1.22D-10
 IDIUse=1 WtCom= 1.00D+00 WtEn= 0.00D+00
 Coeff-Com:  0.397D-06 0.826D-06 0.904D-06-0.149D-03-0.305D-03 0.278D-02
 Coeff-Com:  0.110D-01-0.153D-01-0.107D+00 0.164D+00 0.945D+00
 Coeff:      0.397D-06 0.826D-06 0.904D-06-0.149D-03-0.305D-03 0.278D-02
 Coeff:      0.110D-01-0.153D-01-0.107D+00 0.164D+00 0.945D+00
 Gap=     0.500 Goal=   None    Shift=    0.000
 RMSDP=2.77D-08 MaxDP=1.16D-06 DE=-3.10D-10 OVMax= 2.51D-06

 Cycle  12  Pass 1  IDiag  1:
 E= -389.155209153504     Delta-E=       -0.000000000031 Rises=F Damp=F
 DIIS: error= 3.64D-08 at cycle  12 NSaved=  12.
 NSaved=12 IEnMin=12 EnMin= -389.155209153504     IErMin=12 ErrMin= 3.64D-08
 ErrMax= 3.64D-08  0.00D+00 EMaxC= 1.00D-01 BMatC= 1.17D-12 BMatP= 9.55D-12
 IDIUse=1 WtCom= 1.00D+00 WtEn= 0.00D+00
 Coeff-Com: -0.102D-05 0.547D-05 0.429D-04 0.323D-05-0.343D-03-0.126D-02
 Coeff-Com:  0.366D-03 0.217D-01-0.321D-01-0.113D+00 0.978D-01 0.103D+01
 Coeff:     -0.102D-05 0.547D-05 0.429D-04 0.323D-05-0.343D-03-0.126D-02
 Coeff:      0.366D-03 0.217D-01-0.321D-01-0.113D+00 0.978D-01 0.103D+01
 Gap=     0.500 Goal=   None    Shift=    0.000
 RMSDP=1.18D-08 MaxDP=3.33D-07 DE=-3.13D-11 OVMax= 8.46D-07

 Cycle  13  Pass 1  IDiag  1:
 E= -389.155209153499     Delta-E=        0.000000000005 Rises=F Damp=F
 DIIS: error= 1.06D-08 at cycle  13 NSaved=  13.
 NSaved=13 IEnMin=12 EnMin= -389.155209153504     IErMin=13 ErrMin= 1.06D-08
 ErrMax= 1.06D-08  0.00D+00 EMaxC= 1.00D-01 BMatC= 5.47D-14 BMatP= 1.17D-12
 IDIUse=1 WtCom= 1.00D+00 WtEn= 0.00D+00
 Coeff-Com: -0.122D-06 0.462D-06 0.389D-05 0.136D-04-0.170D-04-0.298D-03
 Coeff-Com: -0.849D-03 0.352D-02 0.516D-02-0.212D-01-0.612D-01 0.111D+00
 Coeff-Com:  0.964D+00
 Coeff:     -0.122D-06 0.462D-06 0.389D-05 0.136D-04-0.170D-04-0.298D-03
 Coeff:     -0.849D-03 0.352D-02 0.516D-02-0.212D-01-0.612D-01 0.111D+00
 Coeff:      0.964D+00
 Gap=     0.500 Goal=   None    Shift=    0.000
 RMSDP=2.13D-09 MaxDP=7.03D-08 DE= 4.89D-12 OVMax= 1.05D-07

 SCF Done:  E(RHF) =  -389.155209153     A.U. after   13 cycles
            NFock= 13  Conv=0.21D-08     -V/T= 2.0014
 KE= 3.886260330669D+02 PE=-1.937508086844D+03 EE= 6.432897342706D+02
 Leave Link  502 at Fri Sep 17 15:58:30 2021, MaxMem=   524288000 cpu:              24.4 elap:              24.5
 (Enter /opt/gaussian/g16_legacy/l801.exe)
 ExpMin= 1.61D-01 ExpMax= 3.05D+03 ExpMxC= 4.57D+02 IAcc=3 IRadAn=         5 AccDes= 0.00D+00
 HarFok:  IExCor=  205 AccDes= 0.00D+00 IRadAn=         5 IDoV=-2 UseB2=F ITyADJ=14
 ICtDFT= 12500011 ScaDFX=  1.000000  1.000000  1.000000  1.000000
 Largest valence mixing into a core orbital is  1.98D-04
 Largest core mixing into a valence orbital is  3.52D-05
 Range of M.O.s used for correlation:    11   240
 NBasis=   240 NAE=    39 NBE=    39 NFC=    10 NFV=     0
 NROrb=    230 NOA=    29 NOB=    29 NVA=   201 NVB=   201
 Leave Link  801 at Fri Sep 17 15:58:31 2021, MaxMem=   524288000 cpu:               0.9 elap:               0.9
 (Enter /opt/gaussian/g16_legacy/l906.exe)
 Frozen-core derivative calculation, NFC=  10 NFV=   0.
 FulOut=F Deriv=T AODrv=T NAtomX=    28
   MMem=          88  MDisk=          29 MDiskD=          29
  W3Min=     2246400 MinDsk=     2795480 NBas6D=         240
 NBas2D=       29244    NTT=       28920    LW2=     2040000
    MDV=   523626386 MDiskM=       30186 NBas2p=       24383
 Fully direct method using O(ONN) memory.
 IMap=   1   2   3   4   5   6   7   8   9  10  11  12  13  14  15  16  17  18  19  20
 IMap=  21  22  23  24  25  26  27  28  29  30  31  32  33  34  35  36  37  38  39
 JobTyp=1 Pass  1:  I=  11 to  39 NPSUse=  1 ParTrn=F ParDer=F DoDerP=T.
 Spin components of T(2) and E(2):
     alpha-alpha T2 =       0.5715132208D-01 E2=     -0.1638026943D+00
     alpha-beta  T2 =       0.3618140887D+00 E2=     -0.1089336591D+01
     beta-beta   T2 =       0.5715132208D-01 E2=     -0.1638026943D+00
 The integrals were generated   1 times.
 ANorm=    0.1214955445D+01
 E2 =    -0.1416941979D+01 EUMP2 =    -0.39057215113271D+03
 Leave Link  906 at Fri Sep 17 16:01:07 2021, MaxMem=   524288000 cpu:             155.5 elap:             155.5
 (Enter /opt/gaussian/g16_legacy/l1002.exe)
 Minotr:  Closed shell wavefunction.
          Computing MP2/KS-MP2 derivatives.
          Using Z-Vector for PSCF gradient.
          Skipping F1 and S1 gradient terms here.
          IDoAtm=1111111111111111111111111111
          Frozen-core window.
          Direct CPHF calculation.
          Differentiating once with respect to electric field.
                with respect to dipole field.
          Differentiating once with respect to nuclear coordinates.
          Requested convergence is 1.0D-10 RMS, and 1.0D-09 maximum.
          NewPWx=F KeepS1=T KeepF1=T KeepIn=T MapXYZ=F SortEE=F KeepMc=T.
 Keep R1 ints in memory in canonical form, NReq=425201067.
 FoFCou: FMM=F IPFlag=           0 FMFlag=           0 FMFlg1=           0
         NFxFlg=           0 DoJE=F BraDBF=F KetDBF=F FulRan=T
         wScrn=  0.000000 ICntrl=       600 IOpCl=  0 I1Cent=           0 NGrid=           0
         NMat0=    1 NMatS0=  28920 NMatT0=    0 NMatD0=    1 NMtDS0=    0 NMtDT0=    0
 Symmetry not used in FoFCou.
 Two-electron integral symmetry not used.
          MDV=     524288000 using IRadAn=       5.
          Solving linear equations separately, MaxMat=       0.
          There are     1 degrees of freedom in the 1st order CPHF.  IDoFFX=0 NUNeed=     1.
 LinEq1:  Iter=  0 NonCon=     1 RMS=2.55D-03 Max=3.76D-02 NDo=     1
 AX will form     1 AO Fock derivatives at one time.
 LinEq1:  Iter=  1 NonCon=     1 RMS=6.90D-04 Max=9.74D-03 NDo=     1
 LinEq1:  Iter=  2 NonCon=     1 RMS=1.61D-04 Max=4.14D-03 NDo=     1
 LinEq1:  Iter=  3 NonCon=     1 RMS=4.31D-05 Max=5.07D-04 NDo=     1
 LinEq1:  Iter=  4 NonCon=     1 RMS=1.99D-05 Max=8.55D-04 NDo=     1
 LinEq1:  Iter=  5 NonCon=     1 RMS=5.06D-06 Max=8.27D-05 NDo=     1
 LinEq1:  Iter=  6 NonCon=     1 RMS=1.63D-06 Max=2.69D-05 NDo=     1
 LinEq1:  Iter=  7 NonCon=     1 RMS=4.13D-07 Max=4.18D-06 NDo=     1
 LinEq1:  Iter=  8 NonCon=     1 RMS=1.01D-07 Max=1.86D-06 NDo=     1
 LinEq1:  Iter=  9 NonCon=     1 RMS=2.33D-08 Max=6.32D-07 NDo=     1
 LinEq1:  Iter= 10 NonCon=     1 RMS=6.41D-09 Max=1.62D-07 NDo=     1
 LinEq1:  Iter= 11 NonCon=     1 RMS=1.89D-09 Max=3.62D-08 NDo=     1
 LinEq1:  Iter= 12 NonCon=     1 RMS=4.04D-10 Max=5.85D-09 NDo=     1
 LinEq1:  Iter= 13 NonCon=     1 RMS=1.02D-10 Max=2.33D-09 NDo=     1
 LinEq1:  Iter= 14 NonCon=     0 RMS=2.95D-11 Max=4.05D-10 NDo=     1
 Linear equations converged to 1.000D-10 1.000D-09 after    14 iterations.
 End of Minotr F.D. properties file   721 does not exist.
 End of Minotr F.D. properties file   722 does not exist.
 End of Minotr F.D. properties file   788 does not exist.
 Leave Link 1002 at Fri Sep 17 16:01:25 2021, MaxMem=   524288000 cpu:              18.0 elap:              18.0
 (Enter /opt/gaussian/g16_legacy/l601.exe)
 Copying SCF densities to generalized density rwf, IOpCl= 0 IROHF=0.

 **********************************************************************

            Population analysis using the SCF density.

 **********************************************************************

 Orbital symmetries:
       Occupied  (A) (A) (A) (A) (A) (A) (A) (A) (A) (A) (A) (A)
                 (A) (A) (A) (A) (A) (A) (A) (A) (A) (A) (A) (A)
                 (A) (A) (A) (A) (A) (A) (A) (A) (A) (A) (A) (A)
                 (A) (A) (A)
       Virtual   (A) (A) (A) (A) (A) (A) (A) (A) (A) (A) (A) (A)
                 (A) (A) (A) (A) (A) (A) (A) (A) (A) (A) (A) (A)
                 (A) (A) (A) (A) (A) (A) (A) (A) (A) (A) (A) (A)
                 (A) (A) (A) (A) (A) (A) (A) (A) (A) (A) (A) (A)
                 (A) (A) (A) (A) (A) (A) (A) (A) (A) (A) (A) (A)
                 (A) (A) (A) (A) (A) (A) (A) (A) (A) (A) (A) (A)
                 (A) (A) (A) (A) (A) (A) (A) (A) (A) (A) (A) (A)
                 (A) (A) (A) (A) (A) (A) (A) (A) (A) (A) (A) (A)
                 (A) (A) (A) (A) (A) (A) (A) (A) (A) (A) (A) (A)
                 (A) (A) (A) (A) (A) (A) (A) (A) (A) (A) (A) (A)
                 (A) (A) (A) (A) (A) (A) (A) (A) (A) (A) (A) (A)
                 (A) (A) (A) (A) (A) (A) (A) (A) (A) (A) (A) (A)
                 (A) (A) (A) (A) (A) (A) (A) (A) (A) (A) (A) (A)
                 (A) (A) (A) (A) (A) (A) (A) (A) (A) (A) (A) (A)
                 (A) (A) (A) (A) (A) (A) (A) (A) (A) (A) (A) (A)
                 (A) (A) (A) (A) (A) (A) (A) (A) (A) (A) (A) (A)
                 (A) (A) (A) (A) (A) (A) (A) (A) (A)
 The electronic state is 1-A.
 Alpha  occ. eigenvalues --  -11.23060 -11.22505 -11.21999 -11.21920 -11.21883
 Alpha  occ. eigenvalues --  -11.21651 -11.21554 -11.21485 -11.21458 -11.21437
 Alpha  occ. eigenvalues --   -1.10624  -1.08327  -1.01911  -0.98013  -0.93647
 Alpha  occ. eigenvalues --   -0.91776  -0.86754  -0.82686  -0.70599  -0.69343
 Alpha  occ. eigenvalues --   -0.64585  -0.61545  -0.60102  -0.59029  -0.58087
 Alpha  occ. eigenvalues --   -0.56803  -0.55367  -0.55150  -0.53547  -0.51981
 Alpha  occ. eigenvalues --   -0.51716  -0.51321  -0.50593  -0.49229  -0.48275
 Alpha  occ. eigenvalues --   -0.46014  -0.44273  -0.33356  -0.31525
 Alpha virt. eigenvalues --    0.18456   0.19493   0.22038   0.24453   0.25183
 Alpha virt. eigenvalues --    0.27141   0.28394   0.28932   0.30249   0.30504
 Alpha virt. eigenvalues --    0.31237   0.32117   0.33135   0.33435   0.34031
 Alpha virt. eigenvalues --    0.35677   0.35774   0.36970   0.38998   0.40649
 Alpha virt. eigenvalues --    0.41064   0.42594   0.43322   0.44192   0.45149
 Alpha virt. eigenvalues --    0.51685   0.54047   0.61172   0.62445   0.70139
 Alpha virt. eigenvalues --    0.71101   0.71887   0.74281   0.76417   0.76616
 Alpha virt. eigenvalues --    0.76877   0.78796   0.79455   0.81140   0.82037
 Alpha virt. eigenvalues --    0.83811   0.85656   0.88079   0.91266   0.92027
 Alpha virt. eigenvalues --    0.92898   0.95179   0.97058   0.98262   0.99206
 Alpha virt. eigenvalues --    0.99752   1.00202   1.02302   1.03926   1.06181
 Alpha virt. eigenvalues --    1.07863   1.08639   1.08809   1.11198   1.12390
 Alpha virt. eigenvalues --    1.12559   1.13431   1.14582   1.14925   1.15819
 Alpha virt. eigenvalues --    1.16164   1.16401   1.18223   1.18705   1.20092
 Alpha virt. eigenvalues --    1.20662   1.22067   1.22853   1.25018   1.27543
 Alpha virt. eigenvalues --    1.34172   1.40671   1.41850   1.43740   1.45170
 Alpha virt. eigenvalues --    1.47560   1.53475   1.56256   1.56979   1.58248
 Alpha virt. eigenvalues --    1.59847   1.62722   1.65797   1.69519   1.70792
 Alpha virt. eigenvalues --    1.75331   1.82526   1.92033   1.92194   1.95501
 Alpha virt. eigenvalues --    1.98632   2.01126   2.02850   2.04184   2.08702
 Alpha virt. eigenvalues --    2.09246   2.11121   2.11380   2.13101   2.14505
 Alpha virt. eigenvalues --    2.15424   2.17688   2.19725   2.23578   2.27383
 Alpha virt. eigenvalues --    2.28339   2.29996   2.32201   2.34974   2.35567
 Alpha virt. eigenvalues --    2.35645   2.35782   2.39323   2.39848   2.40349
 Alpha virt. eigenvalues --    2.41280   2.41827   2.43038   2.45163   2.45386
 Alpha virt. eigenvalues --    2.47034   2.48342   2.49337   2.50338   2.54527
 Alpha virt. eigenvalues --    2.56588   2.57721   2.61275   2.62183   2.64355
 Alpha virt. eigenvalues --    2.66343   2.67159   2.72032   2.72993   2.73747
 Alpha virt. eigenvalues --    2.75719   2.77698   2.81088   2.82803   2.85157
 Alpha virt. eigenvalues --    2.87732   2.89154   2.91918   2.93439   2.94436
 Alpha virt. eigenvalues --    2.97093   2.99036   3.01164   3.02602   3.05104
 Alpha virt. eigenvalues --    3.05824   3.06630   3.08505   3.13017   3.15941
 Alpha virt. eigenvalues --    3.17138   3.18162   3.19614   3.20675   3.21267
 Alpha virt. eigenvalues --    3.23190   3.24413   3.26463   3.27247   3.36665
 Alpha virt. eigenvalues --    3.39076   3.44610   3.45618   3.55550   3.57285
 Alpha virt. eigenvalues --    3.58696   3.61056   3.66893   3.73957   3.78199
 Alpha virt. eigenvalues --    3.78867   3.80508   3.81328   3.82328   3.82835
 Alpha virt. eigenvalues --    3.84212   3.85749   3.87657   3.89512   3.91176
 Alpha virt. eigenvalues --    3.95903   4.59096   4.62634   4.74428   4.82816
 Alpha virt. eigenvalues --    4.88837   4.92667   4.93352   5.07550   5.10288
 Alpha virt. eigenvalues --    5.16871
          Condensed to atoms (all electrons):
               1          2          3          4          5          6
     1  C    5.001811   0.413511   0.412359   0.340288  -0.058748   0.003676
     2  H    0.413511   0.588501  -0.030229  -0.045060  -0.004692   0.000081
     3  H    0.412359  -0.030229   0.571672  -0.040528   0.003238  -0.000103
     4  C    0.340288  -0.045060  -0.040528   4.955091   0.349330  -0.041407
     5  C   -0.058748  -0.004692   0.003238   0.349330   4.896472   0.406172
     6  H    0.003676   0.000081  -0.000103  -0.041407   0.406172   0.571043
     7  H   -0.000531  -0.000276  -0.000030  -0.045811   0.400278  -0.028080
     8  H   -0.003553   0.002571  -0.000016  -0.043070   0.397375  -0.027605
     9  C   -0.044046   0.001918  -0.002232   0.698835  -0.045929  -0.002738
    10  H    0.003079  -0.000114   0.000060  -0.036526  -0.006480   0.002222
    11  C   -0.007063   0.000138  -0.002135  -0.050690   0.003424   0.000137
    12  H    0.000232  -0.000010  -0.000034   0.000593  -0.000100  -0.000009
    13  H   -0.001827   0.000004  -0.001333  -0.000420   0.000092   0.000004
    14  H    0.000227   0.000028   0.000172  -0.001412  -0.000116  -0.000004
    15  C    0.000597  -0.000016   0.000160  -0.000017  -0.000000  -0.000000
    16  H   -0.000053  -0.000012  -0.000052  -0.000027  -0.000000   0.000000
    17  H   -0.000041   0.000000   0.000014   0.000001  -0.000000   0.000000
    18  H    0.000077  -0.000001  -0.000076  -0.000002   0.000000  -0.000000
    19  C   -0.003608   0.000615   0.001046   0.000006  -0.000002   0.000000
    20  C   -0.000101  -0.000000  -0.000042   0.000002  -0.000000   0.000000
    21  H   -0.000003   0.000002  -0.000002   0.000000  -0.000000   0.000000
    22  H    0.000022  -0.000001  -0.000005  -0.000000   0.000000  -0.000000
    23  H   -0.000004   0.000000   0.000001   0.000000  -0.000000   0.000000
    24  C   -0.063065  -0.000608  -0.000807   0.006130  -0.000158   0.000003
    25  H    0.000004   0.001003   0.000213  -0.000155   0.000010  -0.000000
    26  C    0.326228  -0.044602  -0.039860  -0.057367  -0.000188  -0.000097
    27  H   -0.045133  -0.002604   0.004291  -0.001851  -0.000392  -0.000025
    28  H   -0.040296   0.004203  -0.002144  -0.001437   0.000317  -0.000010
               7          8          9         10         11         12
     1  C   -0.000531  -0.003553  -0.044046   0.003079  -0.007063   0.000232
     2  H   -0.000276   0.002571   0.001918  -0.000114   0.000138  -0.000010
     3  H   -0.000030  -0.000016  -0.002232   0.000060  -0.002135  -0.000034
     4  C   -0.045811  -0.043070   0.698835  -0.036526  -0.050690   0.000593
     5  C    0.400278   0.397375  -0.045929  -0.006480   0.003424  -0.000100
     6  H   -0.028080  -0.027605  -0.002738   0.002222   0.000137  -0.000009
     7  H    0.594778  -0.035014  -0.001033   0.000123  -0.000100   0.000015
     8  H   -0.035014   0.593630  -0.000426   0.000248  -0.000114  -0.000004
     9  C   -0.001033  -0.000426   4.939965   0.404872   0.337720  -0.042845
    10  H    0.000123   0.000248   0.404872   0.559343  -0.043635  -0.002647
    11  C   -0.000100  -0.000114   0.337720  -0.043635   4.906218   0.403003
    12  H    0.000015  -0.000004  -0.042845  -0.002647   0.403003   0.586820
    13  H    0.000000  -0.000001  -0.041934   0.003315   0.408026  -0.030013
    14  H   -0.000005   0.000021  -0.044363  -0.000222   0.400030  -0.033282
    15  C   -0.000000  -0.000000   0.000010  -0.000000  -0.000097  -0.000004
    16  H    0.000000  -0.000000  -0.000032   0.000000   0.000040   0.000042
    17  H    0.000000   0.000000   0.000000   0.000000   0.000002  -0.000000
    18  H    0.000000  -0.000000   0.000000  -0.000000  -0.000003   0.000000
    19  C    0.000000   0.000000   0.000001   0.000000   0.000007   0.000000
    20  C   -0.000000  -0.000000  -0.000000   0.000000  -0.000000  -0.000000
    21  H   -0.000000  -0.000000  -0.000000   0.000000   0.000000  -0.000000
    22  H    0.000000  -0.000000  -0.000000  -0.000000   0.000000   0.000000
    23  H    0.000000   0.000000   0.000000   0.000000  -0.000000  -0.000000
    24  C   -0.000086   0.000001   0.000070   0.000002  -0.000032  -0.000004
    25  H    0.000012  -0.000002  -0.000002  -0.000000   0.000000   0.000000
    26  C    0.000810   0.000027  -0.004367  -0.000116   0.000690   0.000091
    27  H   -0.000187   0.000093   0.000514   0.000004  -0.000030   0.000000
    28  H   -0.000009   0.000012   0.001215  -0.000044   0.000070  -0.000079
              13         14         15         16         17         18
     1  C   -0.001827   0.000227   0.000597  -0.000053  -0.000041   0.000077
     2  H    0.000004   0.000028  -0.000016  -0.000012   0.000000  -0.000001
     3  H   -0.001333   0.000172   0.000160  -0.000052   0.000014  -0.000076
     4  C   -0.000420  -0.001412  -0.000017  -0.000027   0.000001  -0.000002
     5  C    0.000092  -0.000116  -0.000000  -0.000000  -0.000000   0.000000
     6  H    0.000004  -0.000004  -0.000000   0.000000   0.000000  -0.000000
     7  H    0.000000  -0.000005  -0.000000   0.000000   0.000000   0.000000
     8  H   -0.000001   0.000021  -0.000000  -0.000000   0.000000  -0.000000
     9  C   -0.041934  -0.044363   0.000010  -0.000032   0.000000   0.000000
    10  H    0.003315  -0.000222  -0.000000   0.000000   0.000000  -0.000000
    11  C    0.408026   0.400030  -0.000097   0.000040   0.000002  -0.000003
    12  H   -0.030013  -0.033282  -0.000004   0.000042  -0.000000   0.000000
    13  H    0.573866  -0.026854   0.000010   0.000571  -0.000006   0.000034
    14  H   -0.026854   0.584257   0.000002  -0.000008   0.000000  -0.000000
    15  C    0.000010   0.000002   4.909236   0.406151   0.398268   0.402448
    16  H    0.000571  -0.000008   0.406151   0.568194  -0.026284  -0.030009
    17  H   -0.000006   0.000000   0.398268  -0.026284   0.582546  -0.033099
    18  H    0.000034  -0.000000   0.402448  -0.030009  -0.033099   0.586183
    19  C   -0.000013  -0.000000   0.348394  -0.037062  -0.043819  -0.043928
    20  C    0.000000   0.000000  -0.065377   0.003678  -0.001685  -0.003430
    21  H   -0.000000  -0.000000   0.003695  -0.000108  -0.000079   0.000010
    22  H   -0.000000  -0.000000  -0.002139  -0.000072  -0.000371   0.002846
    23  H   -0.000000   0.000000  -0.001105  -0.000023   0.002552  -0.000507
    24  C    0.000003   0.000002  -0.043328  -0.002870  -0.000842   0.000447
    25  H   -0.000001   0.000000   0.003366   0.000059  -0.000126  -0.000110
    26  C   -0.000212  -0.000050  -0.007534  -0.001944   0.000188   0.000286
    27  H   -0.000008  -0.000000   0.000169   0.000031   0.000032  -0.000012
    28  H   -0.000252   0.000023  -0.002064  -0.001169   0.000056  -0.000043
              19         20         21         22         23         24
     1  C   -0.003608  -0.000101  -0.000003   0.000022  -0.000004  -0.063065
     2  H    0.000615  -0.000000   0.000002  -0.000001   0.000000  -0.000608
     3  H    0.001046  -0.000042  -0.000002  -0.000005   0.000001  -0.000807
     4  C    0.000006   0.000002   0.000000  -0.000000   0.000000   0.006130
     5  C   -0.000002  -0.000000  -0.000000   0.000000  -0.000000  -0.000158
     6  H    0.000000   0.000000   0.000000  -0.000000   0.000000   0.000003
     7  H    0.000000  -0.000000  -0.000000   0.000000   0.000000  -0.000086
     8  H    0.000000  -0.000000  -0.000000  -0.000000   0.000000   0.000001
     9  C    0.000001  -0.000000  -0.000000  -0.000000   0.000000   0.000070
    10  H    0.000000   0.000000   0.000000  -0.000000   0.000000   0.000002
    11  C    0.000007  -0.000000   0.000000   0.000000  -0.000000  -0.000032
    12  H    0.000000  -0.000000  -0.000000   0.000000  -0.000000  -0.000004
    13  H   -0.000013   0.000000  -0.000000  -0.000000  -0.000000   0.000003
    14  H   -0.000000   0.000000  -0.000000  -0.000000   0.000000   0.000002
    15  C    0.348394  -0.065377   0.003695  -0.002139  -0.001105  -0.043328
    16  H   -0.037062   0.003678  -0.000108  -0.000072  -0.000023  -0.002870
    17  H   -0.043819  -0.001685  -0.000079  -0.000371   0.002552  -0.000842
    18  H   -0.043928  -0.003430   0.000010   0.002846  -0.000507   0.000447
    19  C    4.918183   0.352287  -0.040395  -0.044299  -0.045759   0.698193
    20  C    0.352287   4.903237   0.405428   0.396984   0.399259  -0.044858
    21  H   -0.040395   0.405428   0.568016  -0.027370  -0.027559  -0.002385
    22  H   -0.044299   0.396984  -0.027370   0.594310  -0.034898  -0.000548
    23  H   -0.045759   0.399259  -0.027559  -0.034898   0.593065  -0.001134
    24  C    0.698193  -0.044858  -0.002385  -0.000548  -0.001134   4.961491
    25  H   -0.036142  -0.006752   0.002177   0.000235   0.000150   0.402014
    26  C   -0.048264   0.003152   0.000146  -0.000086  -0.000124   0.339924
    27  H    0.000913  -0.000102  -0.000011  -0.000002   0.000012  -0.043342
    28  H    0.000824   0.000070   0.000006  -0.000004   0.000004  -0.043817
              25         26         27         28
     1  C    0.000004   0.326228  -0.045133  -0.040296
     2  H    0.001003  -0.044602  -0.002604   0.004203
     3  H    0.000213  -0.039860   0.004291  -0.002144
     4  C   -0.000155  -0.057367  -0.001851  -0.001437
     5  C    0.000010  -0.000188  -0.000392   0.000317
     6  H   -0.000000  -0.000097  -0.000025  -0.000010
     7  H    0.000012   0.000810  -0.000187  -0.000009
     8  H   -0.000002   0.000027   0.000093   0.000012
     9  C   -0.000002  -0.004367   0.000514   0.001215
    10  H   -0.000000  -0.000116   0.000004  -0.000044
    11  C    0.000000   0.000690  -0.000030   0.000070
    12  H    0.000000   0.000091   0.000000  -0.000079
    13  H   -0.000001  -0.000212  -0.000008  -0.000252
    14  H    0.000000  -0.000050  -0.000000   0.000023
    15  C    0.003366  -0.007534   0.000169  -0.002064
    16  H    0.000059  -0.001944   0.000031  -0.001169
    17  H   -0.000126   0.000188   0.000032   0.000056
    18  H   -0.000110   0.000286  -0.000012  -0.000043
    19  C   -0.036142  -0.048264   0.000913   0.000824
    20  C   -0.006752   0.003152  -0.000102   0.000070
    21  H    0.002177   0.000146  -0.000011   0.000006
    22  H    0.000235  -0.000086  -0.000002  -0.000004
    23  H    0.000150  -0.000124   0.000012   0.000004
    24  C    0.402014   0.339924  -0.043342  -0.043817
    25  H    0.558525  -0.041271  -0.003485   0.003231
    26  C   -0.041271   4.982322   0.413775   0.414880
    27  H   -0.003485   0.413775   0.588479  -0.029599
    28  H    0.003231   0.414880  -0.029599   0.571225
 Mulliken charges:
               1
     1  C   -0.234037
     2  H    0.115649
     3  H    0.126403
     4  C    0.015505
     5  C   -0.339901
     6  H    0.116740
     7  H    0.115146
     8  H    0.115826
     9  C   -0.155173
    10  H    0.116515
    11  C   -0.355606
    12  H    0.118234
    13  H    0.116949
    14  H    0.121554
    15  C   -0.350823
    16  H    0.120959
    17  H    0.122693
    18  H    0.118889
    19  C    0.022822
    20  C   -0.341750
    21  H    0.118430
    22  H    0.115398
    23  H    0.116070
    24  C   -0.160397
    25  H    0.117047
    26  C   -0.236439
    27  H    0.118470
    28  H    0.124829
 Sum of Mulliken charges =  -0.00000
 Mulliken charges with hydrogens summed into heavy atoms:
               1
     1  C    0.008015
     4  C    0.015505
     5  C    0.007811
     9  C   -0.038658
    11  C    0.001131
    15  C    0.011717
    19  C    0.022822
    20  C    0.008147
    24  C   -0.043350
    26  C    0.006860
 Electronic spatial extent (au):  <R**2>=           2423.6396
 Charge=              0.0000 electrons
 Dipole moment (field-independent basis, Debye):
    X=             -0.2948    Y=              0.1262    Z=             -0.0060  Tot=              0.3208
 Quadrupole moment (field-independent basis, Debye-Ang):
   XX=            -64.5130   YY=            -63.6032   ZZ=            -67.0541
   XY=             -0.6106   XZ=             -0.8629   YZ=             -0.4855
 Traceless Quadrupole moment (field-independent basis, Debye-Ang):
   XX=              0.5437   YY=              1.4536   ZZ=             -1.9973
   XY=             -0.6106   XZ=             -0.8629   YZ=             -0.4855
 Octapole moment (field-independent basis, Debye-Ang**2):
  XXX=             -1.3657  YYY=             -2.7191  ZZZ=              0.1847  XYY=              0.5696
  XXY=              4.5363  XXZ=             -2.6541  XZZ=             -1.5767  YZZ=              1.2276
  YYZ=              1.3702  XYZ=              0.7521
 Hexadecapole moment (field-independent basis, Debye-Ang**3):
 XXXX=          -2492.3104 YYYY=           -696.1098 ZZZZ=           -174.8239 XXXY=              2.3502
 XXXZ=            -11.9380 YYYX=              9.3549 YYYZ=             -3.0523 ZZZX=              0.8365
 ZZZY=             -0.0652 XXYY=           -530.4644 XXZZ=           -456.3142 YYZZ=           -139.1714
 XXYZ=             -4.2429 YYXZ=             -3.1973 ZZXY=             -4.6993
 N-N= 5.164371103531D+02 E-N=-1.937508086957D+03  KE= 3.886260330669D+02
 No NMR shielding tensors so no spin-rotation constants.
 Leave Link  601 at Fri Sep 17 16:01:25 2021, MaxMem=   524288000 cpu:               0.1 elap:               0.2
 (Enter /opt/gaussian/g16_legacy/l701.exe)
 ... and contract with generalized density number  2.
 Compute integral first derivatives.
 Leave Link  701 at Fri Sep 17 16:01:25 2021, MaxMem=   524288000 cpu:               0.2 elap:               0.2
 (Enter /opt/gaussian/g16_legacy/l702.exe)
 L702 exits ... SP integral derivatives will be done elsewhere.
 Leave Link  702 at Fri Sep 17 16:01:25 2021, MaxMem=   524288000 cpu:               0.0 elap:               0.0
 (Enter /opt/gaussian/g16_legacy/l703.exe)
 Integral derivatives from FoFJK, PRISM(SPDF).
 Compute integral first derivatives, UseDBF=F ICtDFT=           0.
 Calling FoFJK, ICntrl=  10002127 FMM=F ISym2X=0 I1Cent= 0 IOpClX= 0 NMat=1 NMatS=1 NMatT=0.
 FoFJK:  IHMeth= 1 ICntrl=10002127 DoSepK=F KAlg= 0 I1Cent=           0 FoldK=F
 IRaf=         0 NMat=       1 IRICut=       1 DoRegI=T DoRafI=F ISym2E= 0 IDoP0=0 IntGTp=1.
 FoFCou: FMM=F IPFlag=           0 FMFlag=      100000 FMFlg1=         800
         NFxFlg=           0 DoJE=F BraDBF=F KetDBF=F FulRan=T
         wScrn=  0.000000 ICntrl=  10002127 IOpCl=  0 I1Cent=           0 NGrid=           0
         NMat0=    1 NMatS0=      1 NMatT0=    0 NMatD0=    1 NMtDS0=    0 NMtDT0=    0
 Symmetry not used in FoFCou.
 Leave Link  703 at Fri Sep 17 16:01:45 2021, MaxMem=   524288000 cpu:              19.7 elap:              19.9
 (Enter /opt/gaussian/g16_legacy/l716.exe)
 Dipole        =-9.11169438D-02 6.69290136D-02-4.80683752D-03
 ***** Axes restored to original set *****
 -------------------------------------------------------------------
 Center     Atomic                   Forces (Hartrees/Bohr)
 Number     Number              X              Y              Z
 -------------------------------------------------------------------
      1        6           0.008676663   -0.000003774   -0.003806144
      2        1          -0.001313554   -0.003550414   -0.000419972
      3        1          -0.002171626   -0.003886177    0.001378718
      4        6           0.005300747    0.003231409    0.001833070
      5        6           0.002356498   -0.002173020    0.000084220
      6        1          -0.003232773    0.001697768   -0.001919367
      7        1           0.001427820    0.002833032    0.001188610
      8        1          -0.002335335   -0.002360263    0.000659871
      9        6          -0.002971903   -0.001457042    0.001926471
     10        1          -0.002410938    0.001347711    0.002254977
     11        6          -0.001459020    0.000380177   -0.002239364
     12        1           0.001131350    0.003220345   -0.000653659
     13        1           0.002719379   -0.000193295    0.001915318
     14        1          -0.001953936   -0.001885672   -0.002101903
     15        6           0.003739207   -0.002624618   -0.000414228
     16        1          -0.002622293    0.000963683    0.002026092
     17        1           0.001150223    0.002220045   -0.001917220
     18        1          -0.002592809   -0.002058295    0.001536409
     19        6           0.001366487    0.003900415    0.003341588
     20        6           0.000185726    0.001705456    0.002878200
     21        1           0.001905378   -0.002623716   -0.002847043
     22        1          -0.002735731   -0.002251782    0.000084536
     23        1           0.001249847    0.002649488   -0.001664836
     24        6          -0.000503100   -0.004795059    0.002148992
     25        1          -0.001231540    0.000608218   -0.003132317
     26        6          -0.007917395    0.000087359   -0.000570291
     27        1           0.002578303    0.001377460   -0.001732252
     28        1           0.001664325    0.003640561    0.000161523
 -------------------------------------------------------------------
 Cartesian Forces:  Max     0.008676663 RMS     0.002573115
 Leave Link  716 at Fri Sep 17 16:01:45 2021, MaxMem=   524288000 cpu:               0.0 elap:               0.0
 (Enter /opt/gaussian/g16_legacy/l103.exe)

 GradGradGradGradGradGradGradGradGradGradGradGradGradGradGradGradGradGrad
 Berny optimization.
 FormGI is forming the generalized inverse of G from B-inverse, IUseBI=4.
 Internal  Forces:  Max     0.004879429 RMS     0.001916834
 Search for a local minimum.
 Step number   1 out of a maximum of  138
 All quantities printed in internal units (Hartrees-Bohrs-Radians)
 RMS Force = .19168D-02 SwitMx=.10000D-02 MixMth= 1
 Mixed Optimization -- RFO/linear search
 Second derivative matrix not updated -- first step.
 ITU=  0
     Eigenvalues ---    0.00343   0.00570   0.00671   0.00679   0.00692
     Eigenvalues ---    0.00715   0.00818   0.01219   0.01287   0.01569
     Eigenvalues ---    0.01641   0.02779   0.02785   0.04018   0.04138
     Eigenvalues ---    0.05349   0.05399   0.06978   0.07035   0.07090
     Eigenvalues ---    0.07092   0.07269   0.07300   0.07347   0.07505
     Eigenvalues ---    0.09277   0.09361   0.12766   0.12843   0.15999
     Eigenvalues ---    0.15999   0.16000   0.16000   0.16000   0.16000
     Eigenvalues ---    0.16000   0.16000   0.16000   0.16000   0.16000
     Eigenvalues ---    0.16000   0.16000   0.16000   0.21859   0.21866
     Eigenvalues ---    0.22000   0.22000   0.24994   0.24997   0.24998
     Eigenvalues ---    0.24999   0.29241   0.30873   0.31634   0.31698
     Eigenvalues ---    0.31800   0.31974   0.32794   0.33866   0.33972
     Eigenvalues ---    0.34068   0.34198   0.34218   0.34235   0.34244
     Eigenvalues ---    0.34245   0.34248   0.34252   0.34256   0.34262
     Eigenvalues ---    0.34292   0.34336   0.34549   0.34561   0.34797
     Eigenvalues ---    0.34850   0.55485   0.55590
 RFO step:  Lambda=-2.95938286D-03 EMin= 3.42851829D-03
 Linear search not attempted -- first point.
 Iteration  1 RMS(Cart)=  0.03971724 RMS(Int)=  0.00072400
 Iteration  2 RMS(Cart)=  0.00093561 RMS(Int)=  0.00016637
 Iteration  3 RMS(Cart)=  0.00000043 RMS(Int)=  0.00016637
 ITry= 1 IFail=0 DXMaxC= 1.70D-01 DCOld= 1.00D+10 DXMaxT= 3.00D-01 DXLimC= 3.00D+00 Rises=F
 Variable       Old X    -DE/DX   Delta X   Delta X   Delta X     New X
                                 (Linear)    (Quad)   (Total)
    R1        2.07557  -0.00278   0.00000  -0.00815  -0.00815   2.06742
    R2        2.07215  -0.00328   0.00000  -0.00955  -0.00955   2.06260
    R3        2.86256  -0.00352   0.00000  -0.01129  -0.01129   2.85127
    R4        2.89503   0.00174   0.00000   0.00589   0.00589   2.90092
    R5        2.84819  -0.00045   0.00000  -0.00141  -0.00141   2.84678
    R6        2.54703  -0.00402   0.00000  -0.00721  -0.00721   2.53983
    R7        2.06964  -0.00373   0.00000  -0.01082  -0.01082   2.05882
    R8        2.06840  -0.00181   0.00000  -0.00524  -0.00524   2.06315
    R9        2.06913  -0.00217   0.00000  -0.00628  -0.00628   2.06285
   R10        2.05919  -0.00221   0.00000  -0.00628  -0.00628   2.05292
   R11        2.82714   0.00310   0.00000   0.00936   0.00936   2.83650
   R12        2.06900  -0.00262   0.00000  -0.00759  -0.00759   2.06141
   R13        2.06393  -0.00286   0.00000  -0.00822  -0.00822   2.05572
   R14        2.06766  -0.00157   0.00000  -0.00452  -0.00452   2.06314
   R15        2.06413  -0.00282   0.00000  -0.00810  -0.00810   2.05603
   R16        2.06890  -0.00188   0.00000  -0.00544  -0.00544   2.06346
   R17        2.06997  -0.00262   0.00000  -0.00760  -0.00760   2.06237
   R18        2.84191  -0.00047   0.00000  -0.00145  -0.00145   2.84046
   R19        2.84701  -0.00082   0.00000  -0.00256  -0.00256   2.84444
   R20        2.54611  -0.00317   0.00000  -0.00568  -0.00568   2.54043
   R21        2.06935  -0.00392   0.00000  -0.01136  -0.01136   2.05799
   R22        2.06920  -0.00202   0.00000  -0.00584  -0.00584   2.06336
   R23        2.06919  -0.00202   0.00000  -0.00584  -0.00584   2.06335
   R24        2.06006  -0.00198   0.00000  -0.00565  -0.00565   2.05442
   R25        2.84510  -0.00152   0.00000  -0.00473  -0.00473   2.84037
   R26        2.07378  -0.00238   0.00000  -0.00695  -0.00695   2.06683
   R27        2.06906  -0.00274   0.00000  -0.00793  -0.00793   2.06113
    A1        1.82993   0.00207   0.00000   0.02246   0.02229   1.85222
    A2        1.90264  -0.00069   0.00000  -0.00271  -0.00271   1.89993
    A3        1.92004  -0.00195   0.00000  -0.01723  -0.01726   1.90278
    A4        1.93018   0.00042   0.00000   0.00923   0.00926   1.93944
    A5        1.91833  -0.00277   0.00000  -0.02018  -0.02022   1.89811
    A6        1.95837   0.00283   0.00000   0.00911   0.00915   1.96753
    A7        2.00833   0.00237   0.00000   0.00967   0.00910   2.01744
    A8        2.17068  -0.00488   0.00000  -0.01892  -0.01946   2.15122
    A9        2.10399   0.00253   0.00000   0.01036   0.00978   2.11378
   A10        1.95928  -0.00262   0.00000  -0.01310  -0.01307   1.94621
   A11        1.92808   0.00227   0.00000   0.01215   0.01217   1.94025
   A12        1.92480   0.00166   0.00000   0.00902   0.00904   1.93384
   A13        1.87699   0.00055   0.00000   0.00564   0.00568   1.88267
   A14        1.87761   0.00109   0.00000   0.01015   0.01018   1.88779
   A15        1.89492  -0.00307   0.00000  -0.02469  -0.02468   1.87024
   A16        2.06971  -0.00194   0.00000  -0.01340  -0.01342   2.05629
   A17        2.22508  -0.00187   0.00000  -0.00835  -0.00837   2.21671
   A18        1.98827   0.00382   0.00000   0.02192   0.02190   2.01017
   A19        1.90999   0.00238   0.00000   0.01562   0.01556   1.92555
   A20        1.98131  -0.00300   0.00000  -0.01849  -0.01840   1.96291
   A21        1.91720   0.00396   0.00000   0.02334   0.02330   1.94050
   A22        1.87271   0.00053   0.00000   0.00492   0.00499   1.87770
   A23        1.88708  -0.00309   0.00000  -0.01881  -0.01898   1.86809
   A24        1.89291  -0.00095   0.00000  -0.00765  -0.00755   1.88536
   A25        1.88429   0.00024   0.00000   0.00336   0.00339   1.88768
   A26        1.86374   0.00200   0.00000   0.01695   0.01696   1.88071
   A27        1.97974  -0.00222   0.00000  -0.01021  -0.01019   1.96955
   A28        1.89065  -0.00240   0.00000  -0.02160  -0.02159   1.86907
   A29        1.92167   0.00229   0.00000   0.01163   0.01166   1.93333
   A30        1.92083   0.00000   0.00000  -0.00091  -0.00089   1.91994
   A31        1.99466   0.00146   0.00000   0.00582   0.00580   2.00046
   A32        2.18269  -0.00329   0.00000  -0.01298  -0.01300   2.16969
   A33        2.10579   0.00183   0.00000   0.00727   0.00725   2.11303
   A34        1.96054  -0.00276   0.00000  -0.01379  -0.01375   1.94679
   A35        1.92489   0.00220   0.00000   0.01236   0.01238   1.93727
   A36        1.92345   0.00174   0.00000   0.00874   0.00877   1.93222
   A37        1.87919   0.00092   0.00000   0.00937   0.00941   1.88861
   A38        1.87891   0.00091   0.00000   0.00787   0.00790   1.88681
   A39        1.89485  -0.00313   0.00000  -0.02539  -0.02539   1.86946
   A40        2.06714  -0.00167   0.00000  -0.01180  -0.01220   2.05494
   A41        2.22715  -0.00226   0.00000  -0.00995  -0.01036   2.21679
   A42        1.98876   0.00394   0.00000   0.02255   0.02212   2.01089
   A43        1.94447   0.00331   0.00000   0.01367   0.01370   1.95817
   A44        1.92090  -0.00239   0.00000  -0.01476  -0.01496   1.90594
   A45        1.92601  -0.00264   0.00000  -0.02489  -0.02496   1.90105
   A46        1.88066   0.00060   0.00000   0.01700   0.01705   1.89770
   A47        1.94657  -0.00053   0.00000  -0.00241  -0.00236   1.94421
   A48        1.84191   0.00155   0.00000   0.01190   0.01164   1.85355
    D1        0.63957  -0.00059   0.00000   0.02161   0.02137   0.66093
    D2       -2.48148  -0.00156   0.00000  -0.04070  -0.04050  -2.52198
    D3        2.64269   0.00174   0.00000   0.05217   0.05196   2.69465
    D4       -0.47836   0.00076   0.00000  -0.01013  -0.00990  -0.48827
    D5       -1.49171   0.00048   0.00000   0.03930   0.03909  -1.45262
[...]
                 (A) (A) (A) (A) (A) (A) (A) (A) (A) (A) (A) (A)
                 (A) (A) (A) (A) (A) (A) (A) (A) (A) (A) (A) (A)
                 (A) (A) (A) (A) (A) (A) (A) (A) (A) (A) (A) (A)
                 (A) (A) (A) (A) (A) (A) (A) (A) (A) (A) (A) (A)
                 (A) (A) (A) (A) (A) (A) (A) (A) (A) (A) (A) (A)
                 (A) (A) (A) (A) (A) (A) (A) (A) (A) (A) (A) (A)
                 (A) (A) (A) (A) (A) (A) (A) (A) (A) (A) (A) (A)
                 (A) (A) (A) (A) (A) (A) (A) (A) (A) (A) (A) (A)
                 (A) (A) (A) (A) (A) (A) (A) (A) (A) (A) (A) (A)
                 (A) (A) (A) (A) (A) (A) (A) (A) (A) (A) (A) (A)
                 (A) (A) (A) (A) (A) (A) (A) (A) (A) (A) (A) (A)
                 (A) (A) (A) (A) (A) (A) (A) (A) (A) (A) (A) (A)
                 (A) (A) (A) (A) (A) (A) (A) (A) (A) (A) (A) (A)
                 (A) (A) (A) (A) (A) (A) (A) (A) (A) (A) (A) (A)
                 (A) (A) (A) (A) (A) (A) (A) (A) (A)
 The electronic state is 1-A.
 Alpha  occ. eigenvalues --  -11.23020 -11.22460 -11.21868 -11.21730 -11.21712
 Alpha  occ. eigenvalues --  -11.21539 -11.21506 -11.21436 -11.21417 -11.21348
 Alpha  occ. eigenvalues --   -1.10821  -1.08492  -1.01823  -0.98143  -0.93838
 Alpha  occ. eigenvalues --   -0.91939  -0.86963  -0.82855  -0.70494  -0.69519
 Alpha  occ. eigenvalues --   -0.64988  -0.61512  -0.60591  -0.58878  -0.58366
 Alpha  occ. eigenvalues --   -0.56774  -0.55298  -0.54966  -0.53295  -0.52261
 Alpha  occ. eigenvalues --   -0.51859  -0.51173  -0.50832  -0.49581  -0.48519
 Alpha  occ. eigenvalues --   -0.46073  -0.44624  -0.33371  -0.31514
 Alpha virt. eigenvalues --    0.18142   0.19779   0.22152   0.24486   0.25192
 Alpha virt. eigenvalues --    0.27439   0.28535   0.28922   0.30318   0.30811
 Alpha virt. eigenvalues --    0.31477   0.32261   0.33202   0.33794   0.34383
 Alpha virt. eigenvalues --    0.35458   0.36114   0.36962   0.39185   0.40602
 Alpha virt. eigenvalues --    0.41328   0.42631   0.43685   0.44253   0.45395
 Alpha virt. eigenvalues --    0.51702   0.54378   0.61070   0.62576   0.70520
 Alpha virt. eigenvalues --    0.71073   0.72196   0.73768   0.76075   0.76177
 Alpha virt. eigenvalues --    0.76620   0.79010   0.79474   0.81070   0.82306
 Alpha virt. eigenvalues --    0.83713   0.85579   0.89117   0.91091   0.91343
 Alpha virt. eigenvalues --    0.92820   0.94745   0.97065   0.98284   0.98818
 Alpha virt. eigenvalues --    0.99710   1.00468   1.01911   1.03844   1.06577
 Alpha virt. eigenvalues --    1.08019   1.08221   1.09393   1.11664   1.12687
 Alpha virt. eigenvalues --    1.13026   1.13870   1.14856   1.15402   1.16045
 Alpha virt. eigenvalues --    1.16257   1.16619   1.18722   1.19116   1.20671
 Alpha virt. eigenvalues --    1.20953   1.23032   1.23885   1.25765   1.28153
 Alpha virt. eigenvalues --    1.34331   1.41723   1.42153   1.44890   1.46395
 Alpha virt. eigenvalues --    1.48456   1.54136   1.55360   1.57256   1.58165
 Alpha virt. eigenvalues --    1.61459   1.63397   1.66485   1.69046   1.69645
 Alpha virt. eigenvalues --    1.73917   1.82243   1.91111   1.93363   1.96231
 Alpha virt. eigenvalues --    1.98688   2.01467   2.02277   2.03942   2.08565
 Alpha virt. eigenvalues --    2.09706   2.10748   2.11744   2.13037   2.14903
 Alpha virt. eigenvalues --    2.15780   2.16940   2.19854   2.23666   2.28347
 Alpha virt. eigenvalues --    2.29590   2.30325   2.33235   2.35347   2.35688
 Alpha virt. eigenvalues --    2.35978   2.36098   2.38923   2.40264   2.41259
 Alpha virt. eigenvalues --    2.42195   2.43169   2.44154   2.45371   2.46084
 Alpha virt. eigenvalues --    2.47201   2.49167   2.49622   2.51174   2.54099
 Alpha virt. eigenvalues --    2.57315   2.58365   2.61888   2.63241   2.64107
 Alpha virt. eigenvalues --    2.67127   2.68175   2.71776   2.73352   2.73474
 Alpha virt. eigenvalues --    2.75815   2.77410   2.80796   2.82634   2.85354
 Alpha virt. eigenvalues --    2.87137   2.89441   2.92178   2.93739   2.94867
 Alpha virt. eigenvalues --    2.97869   2.99094   3.00960   3.02677   3.05807
 Alpha virt. eigenvalues --    3.06402   3.07703   3.09315   3.13762   3.17093
 Alpha virt. eigenvalues --    3.17589   3.19238   3.20046   3.21242   3.22334
 Alpha virt. eigenvalues --    3.24167   3.25050   3.26607   3.27420   3.37866
 Alpha virt. eigenvalues --    3.40355   3.46023   3.46902   3.56200   3.58183
 Alpha virt. eigenvalues --    3.59499   3.62406   3.67928   3.75494   3.78622
 Alpha virt. eigenvalues --    3.80005   3.81570   3.82569   3.83286   3.83898
 Alpha virt. eigenvalues --    3.84750   3.86481   3.87645   3.89820   3.91558
 Alpha virt. eigenvalues --    3.97645   4.59389   4.63170   4.74472   4.82572
 Alpha virt. eigenvalues --    4.88928   4.92582   4.93409   5.07840   5.10766
 Alpha virt. eigenvalues --    5.17766
          Condensed to atoms (all electrons):
               1          2          3          4          5          6
     1  C    5.004767   0.414473   0.411715   0.337355  -0.056085   0.003801
     2  H    0.414473   0.587507  -0.028296  -0.046308  -0.004587   0.000106
     3  H    0.411715  -0.028296   0.572983  -0.038988   0.003071  -0.000108
     4  C    0.337355  -0.046308  -0.038988   4.952603   0.351934  -0.042765
     5  C   -0.056085  -0.004587   0.003071   0.351934   4.891804   0.407087
     6  H    0.003801   0.000106  -0.000108  -0.042765   0.407087   0.568858
     7  H    0.000011  -0.000489  -0.000005  -0.045679   0.400946  -0.027466
     8  H   -0.003698   0.002378  -0.000034  -0.041506   0.397495  -0.026764
     9  C   -0.047991   0.002531  -0.001860   0.697840  -0.046054  -0.002890
    10  H    0.003272  -0.000118   0.000031  -0.037842  -0.006525   0.002385
    11  C   -0.007749   0.000160  -0.002811  -0.050271   0.003364   0.000132
    12  H    0.000310  -0.000013  -0.000067  -0.000247  -0.000095  -0.000006
    13  H   -0.001745   0.000030  -0.001657  -0.000691   0.000109   0.000005
    14  H    0.000152   0.000017   0.000184  -0.000627  -0.000106  -0.000006
    15  C    0.000587  -0.000015   0.000200  -0.000018  -0.000000  -0.000000
    16  H   -0.000302  -0.000016  -0.000131  -0.000011  -0.000000   0.000000
    17  H   -0.000040   0.000000   0.000022   0.000001  -0.000000   0.000000
    18  H    0.000130  -0.000002  -0.000135  -0.000005   0.000000  -0.000000
    19  C   -0.004325   0.000787   0.001388   0.000041  -0.000003   0.000000
    20  C   -0.000099  -0.000004  -0.000043   0.000001  -0.000000   0.000000
    21  H   -0.000003   0.000003  -0.000002   0.000000  -0.000000   0.000000
    22  H    0.000024  -0.000002  -0.000007  -0.000000   0.000000  -0.000000
    23  H   -0.000005   0.000000   0.000002   0.000000  -0.000000   0.000000
    24  C   -0.061827  -0.000900  -0.000504   0.006443  -0.000149   0.000004
    25  H    0.000175   0.001011   0.000111  -0.000152   0.000010  -0.000000
    26  C    0.332330  -0.046074  -0.041801  -0.055544  -0.000661  -0.000109
    27  H   -0.046841  -0.001931   0.004515  -0.002075  -0.000289  -0.000050
    28  H   -0.042369   0.004477  -0.003118  -0.001813   0.000243  -0.000005
               7          8          9         10         11         12
     1  C    0.000011  -0.003698  -0.047991   0.003272  -0.007749   0.000310
     2  H   -0.000489   0.002378   0.002531  -0.000118   0.000160  -0.000013
     3  H   -0.000005  -0.000034  -0.001860   0.000031  -0.002811  -0.000067
     4  C   -0.045679  -0.041506   0.697840  -0.037842  -0.050271  -0.000247
     5  C    0.400946   0.397495  -0.046054  -0.006525   0.003364  -0.000095
     6  H   -0.027466  -0.026764  -0.002890   0.002385   0.000132  -0.000006
     7  H    0.596034  -0.037541  -0.001011   0.000135  -0.000101   0.000017
     8  H   -0.037541   0.591921  -0.000373   0.000216  -0.000105  -0.000004
     9  C   -0.001011  -0.000373   4.938971   0.404494   0.340494  -0.041805
    10  H    0.000135   0.000216   0.404494   0.558671  -0.041279  -0.001264
    11  C   -0.000101  -0.000105   0.340494  -0.041279   4.900974   0.402169
    12  H    0.000017  -0.000004  -0.041805  -0.001264   0.402169   0.586720
    13  H   -0.000003   0.000002  -0.043903   0.003299   0.409079  -0.029956
    14  H   -0.000004   0.000017  -0.041523  -0.001122   0.401144  -0.035462
    15  C   -0.000000   0.000000   0.000015  -0.000000  -0.000147  -0.000015
    16  H    0.000000  -0.000000  -0.000045   0.000000   0.000074   0.000114
    17  H   -0.000000   0.000000   0.000000   0.000000   0.000003  -0.000000
    18  H    0.000000  -0.000000   0.000000  -0.000000  -0.000009   0.000000
    19  C    0.000000   0.000000  -0.000001   0.000000   0.000013   0.000001
    20  C   -0.000000  -0.000000  -0.000000   0.000000  -0.000000  -0.000000
    21  H   -0.000000  -0.000000  -0.000000   0.000000   0.000000  -0.000000
    22  H    0.000000  -0.000000   0.000000  -0.000000  -0.000000   0.000000
    23  H    0.000000   0.000000   0.000000   0.000000   0.000000  -0.000000
    24  C   -0.000111   0.000004   0.000114   0.000002  -0.000031  -0.000009
    25  H    0.000015  -0.000001  -0.000002  -0.000000   0.000000   0.000000
    26  C    0.000609   0.000086  -0.004911  -0.000113   0.000577   0.000163
    27  H    0.000197   0.000058   0.000760   0.000001  -0.000033  -0.000000
    28  H   -0.000015   0.000006   0.001406  -0.000046  -0.000082  -0.000140
              13         14         15         16         17         18
     1  C   -0.001745   0.000152   0.000587  -0.000302  -0.000040   0.000130
     2  H    0.000030   0.000017  -0.000015  -0.000016   0.000000  -0.000002
     3  H   -0.001657   0.000184   0.000200  -0.000131   0.000022  -0.000135
     4  C   -0.000691  -0.000627  -0.000018  -0.000011   0.000001  -0.000005
     5  C    0.000109  -0.000106  -0.000000  -0.000000  -0.000000   0.000000
     6  H    0.000005  -0.000006  -0.000000   0.000000   0.000000  -0.000000
     7  H   -0.000003  -0.000004  -0.000000   0.000000  -0.000000   0.000000
     8  H    0.000002   0.000017   0.000000  -0.000000   0.000000  -0.000000
     9  C   -0.043903  -0.041523   0.000015  -0.000045   0.000000   0.000000
    10  H    0.003299  -0.001122  -0.000000   0.000000   0.000000  -0.000000
    11  C    0.409079   0.401144  -0.000147   0.000074   0.000003  -0.000009
    12  H   -0.029956  -0.035462  -0.000015   0.000114  -0.000000   0.000000
    13  H    0.577164  -0.027132  -0.000000   0.000412  -0.000008   0.000079
    14  H   -0.027132   0.583648   0.000004  -0.000013   0.000000  -0.000000
    15  C   -0.000000   0.000004   4.907254   0.407154   0.399852   0.401208
    16  H    0.000412  -0.000013   0.407154   0.568221  -0.026060  -0.028659
    17  H   -0.000008   0.000000   0.399852  -0.026060   0.584669  -0.035759
    18  H    0.000079  -0.000000   0.401208  -0.028659  -0.035759   0.587442
    19  C   -0.000026  -0.000000   0.350333  -0.037848  -0.043537  -0.043385
    20  C    0.000000   0.000000  -0.064931   0.003725  -0.002223  -0.002632
    21  H   -0.000000  -0.000000   0.003785  -0.000113  -0.000053  -0.000032
    22  H   -0.000000  -0.000000  -0.001975  -0.000068  -0.000456   0.002756
    23  H   -0.000000   0.000000  -0.001201  -0.000031   0.002766  -0.000476
    24  C    0.000026   0.000002  -0.044248  -0.003253  -0.000365  -0.000031
    25  H   -0.000002   0.000000   0.003528   0.000061  -0.000121  -0.000121
    26  C   -0.000737  -0.000037  -0.008144  -0.002069   0.000117   0.000367
    27  H   -0.000010  -0.000000   0.000195   0.000058   0.000021  -0.000014
    28  H   -0.000475   0.000037  -0.002693  -0.001675   0.000113  -0.000076
              19         20         21         22         23         24
     1  C   -0.004325  -0.000099  -0.000003   0.000024  -0.000005  -0.061827
     2  H    0.000787  -0.000004   0.000003  -0.000002   0.000000  -0.000900
     3  H    0.001388  -0.000043  -0.000002  -0.000007   0.000002  -0.000504
     4  C    0.000041   0.000001   0.000000  -0.000000   0.000000   0.006443
     5  C   -0.000003  -0.000000  -0.000000   0.000000  -0.000000  -0.000149
     6  H    0.000000   0.000000   0.000000  -0.000000   0.000000   0.000004
     7  H    0.000000  -0.000000  -0.000000   0.000000   0.000000  -0.000111
     8  H    0.000000  -0.000000  -0.000000  -0.000000   0.000000   0.000004
     9  C   -0.000001  -0.000000  -0.000000   0.000000   0.000000   0.000114
    10  H    0.000000   0.000000   0.000000  -0.000000   0.000000   0.000002
    11  C    0.000013  -0.000000   0.000000  -0.000000   0.000000  -0.000031
    12  H    0.000001  -0.000000  -0.000000   0.000000  -0.000000  -0.000009
    13  H   -0.000026   0.000000  -0.000000  -0.000000  -0.000000   0.000026
    14  H   -0.000000   0.000000  -0.000000  -0.000000   0.000000   0.000002
    15  C    0.350333  -0.064931   0.003785  -0.001975  -0.001201  -0.044248
    16  H   -0.037848   0.003725  -0.000113  -0.000068  -0.000031  -0.003253
    17  H   -0.043537  -0.002223  -0.000053  -0.000456   0.002766  -0.000365
    18  H   -0.043385  -0.002632  -0.000032   0.002756  -0.000476  -0.000031
    19  C    4.914192   0.353753  -0.041639  -0.043899  -0.044274   0.697734
    20  C    0.353753   4.900112   0.406218   0.398238   0.398811  -0.044415
    21  H   -0.041639   0.406218   0.566018  -0.026703  -0.026549  -0.002632
    22  H   -0.043899   0.398238  -0.026703   0.594542  -0.037806  -0.000422
    23  H   -0.044274   0.398811  -0.026549  -0.037806   0.593607  -0.001270
    24  C    0.697734  -0.044415  -0.002632  -0.000422  -0.001270   4.962747
    25  H   -0.038449  -0.006963   0.002335   0.000182   0.000187   0.403391
    26  C   -0.050100   0.003126   0.000148  -0.000068  -0.000131   0.338699
    27  H    0.001583  -0.000094  -0.000010  -0.000002   0.000009  -0.041394
    28  H    0.000438   0.000051   0.000007  -0.000005   0.000007  -0.044060
              25         26         27         28
     1  C    0.000175   0.332330  -0.046841  -0.042369
     2  H    0.001011  -0.046074  -0.001931   0.004477
     3  H    0.000111  -0.041801   0.004515  -0.003118
     4  C   -0.000152  -0.055544  -0.002075  -0.001813
     5  C    0.000010  -0.000661  -0.000289   0.000243
     6  H   -0.000000  -0.000109  -0.000050  -0.000005
     7  H    0.000015   0.000609   0.000197  -0.000015
     8  H   -0.000001   0.000086   0.000058   0.000006
     9  C   -0.000002  -0.004911   0.000760   0.001406
    10  H   -0.000000  -0.000113   0.000001  -0.000046
    11  C    0.000000   0.000577  -0.000033  -0.000082
    12  H    0.000000   0.000163  -0.000000  -0.000140
    13  H   -0.000002  -0.000737  -0.000010  -0.000475
    14  H    0.000000  -0.000037  -0.000000   0.000037
    15  C    0.003528  -0.008144   0.000195  -0.002693
    16  H    0.000061  -0.002069   0.000058  -0.001675
    17  H   -0.000121   0.000117   0.000021   0.000113
    18  H   -0.000121   0.000367  -0.000014  -0.000076
    19  C   -0.038449  -0.050100   0.001583   0.000438
    20  C   -0.006963   0.003126  -0.000094   0.000051
    21  H    0.002335   0.000148  -0.000010   0.000007
    22  H    0.000182  -0.000068  -0.000002  -0.000005
    23  H    0.000187  -0.000131   0.000009   0.000007
    24  C    0.403391   0.338699  -0.041394  -0.044060
    25  H    0.557389  -0.039113  -0.003424   0.003152
    26  C   -0.039113   4.979544   0.413482   0.415850
    27  H   -0.003424   0.413482   0.585267  -0.028362
    28  H    0.003152   0.415850  -0.028362   0.575347
 Mulliken charges:
               1
     1  C   -0.236021
     2  H    0.115272
     3  H    0.125346
     4  C    0.018322
     5  C   -0.341505
     6  H    0.117792
     7  H    0.114461
     8  H    0.117844
     9  C   -0.154256
    10  H    0.115801
    11  C   -0.355567
    12  H    0.119588
    13  H    0.116140
    14  H    0.120830
    15  C   -0.350727
    16  H    0.120474
    17  H    0.121058
    18  H    0.119352
    19  C    0.027222
    20  C   -0.342631
    21  H    0.119222
    22  H    0.115672
    23  H    0.116356
    24  C   -0.163543
    25  H    0.116803
    26  C   -0.235486
    27  H    0.118380
    28  H    0.123802
 Sum of Mulliken charges =  -0.00000
 Mulliken charges with hydrogens summed into heavy atoms:
               1
     1  C    0.004596
     4  C    0.018322
     5  C    0.008593
     9  C   -0.038454
    11  C    0.000991
    15  C    0.010156
    19  C    0.027222
    20  C    0.008618
    24  C   -0.046740
    26  C    0.006696
 Electronic spatial extent (au):  <R**2>=           2384.0062
 Charge=             -0.0000 electrons
 Dipole moment (field-independent basis, Debye):
    X=             -0.3027    Y=              0.1253    Z=              0.0460  Tot=              0.3308
 Quadrupole moment (field-independent basis, Debye-Ang):
   XX=            -64.3024   YY=            -63.2901   ZZ=            -67.3956
   XY=             -0.7521   XZ=             -1.2367   YZ=             -0.3487
 Traceless Quadrupole moment (field-independent basis, Debye-Ang):
   XX=              0.6937   YY=              1.7059   ZZ=             -2.3996
   XY=             -0.7521   XZ=             -1.2367   YZ=             -0.3487
 Octapole moment (field-independent basis, Debye-Ang**2):
  XXX=             -2.6682  YYY=             -2.9989  ZZZ=              0.8999  XYY=              0.6415
  XXY=              4.0909  XXZ=             -2.0918  XZZ=             -1.2120  YZZ=              1.4955
  YYZ=              0.6111  XYZ=              0.3641
 Hexadecapole moment (field-independent basis, Debye-Ang**3):
 XXXX=          -2435.7164 YYYY=           -693.4925 ZZZZ=           -166.6417 XXXY=             -2.3046
 XXXZ=            -14.7514 YYYX=             11.0526 YYYZ=             -1.4214 ZZZX=             -2.8119
 ZZZY=             -0.6411 XXYY=           -520.1246 XXZZ=           -449.2341 YYZZ=           -138.3649
 XXYZ=             -4.2785 YYXZ=             -0.5785 ZZXY=             -5.9187
 N-N= 5.190879864506D+02 E-N=-1.942888711800D+03  KE= 3.887471636080D+02
 No NMR shielding tensors so no spin-rotation constants.
 Leave Link  601 at Fri Sep 17 16:41:48 2021, MaxMem=   524288000 cpu:               0.2 elap:               0.4
 (Enter /opt/gaussian/g16_legacy/l9999.exe)
 1\1\GINC-TRUENO93\FOpt\RMP2-FC\6-31G(d,p)\C10H18\JRAMOS\17-Sep-2021\0\
 \#p opt mp2/6-31g(d,p)\\Conformer number 497. Energy MM = 23.242 kcal/
 mol\\0,1\C,0.8326208375,0.4250132781,0.617553637\H,0.7663338414,1.1852
 241986,1.4012455335\H,0.858855457,0.9656126984,-0.3298530781\C,2.08130
 39898,-0.3955991657,0.8212070979\C,2.5072352835,-0.5839192274,2.251790
 7188\H,3.3679973072,-1.2469390898,2.329331518\H,1.6972822653,-1.009037
 2491,2.8487228615\H,2.7692215844,0.3731589463,2.7080687369\C,2.7588891
 855,-0.9777479665,-0.1857352694\H,3.6317681438,-1.571606081,0.07108763
 32\C,2.4411349597,-0.9010254143,-1.6482974092\H,2.2706054687,-1.898359
 5838,-2.0581147631\H,1.553705319,-0.3049186731,-1.8485732862\H,3.27238
 13567,-0.4663241348,-2.2067110315\C,-2.0627972151,0.1459665486,-1.9225
 612006\H,-1.1628531328,-0.4636438695,-1.9373757509\H,-2.8880568334,-0.
 4538335719,-2.3128987748\H,-1.9190162384,0.9753630299,-2.6184519837\C,
 -2.3937147172,0.6709383535,-0.5529765926\C,-3.6085323281,1.5554233331,
 -0.4950650287\H,-3.8017330797,1.9039499566,0.5183258744\H,-3.485852751
 6,2.4282893261,-1.1402495108\H,-4.4942040857,1.0225899932,-0.848574087
 2\C,-1.6873574206,0.3922946363,0.5588609535\H,-2.0151225451,0.85152466
 07,1.4881137192\C,-0.4424381743,-0.4392496724,0.6515704976\H,-0.458596
 2372,-1.0127057261,1.5822308509\H,-0.3888602405,-1.1704395341,-0.15597
 18655\\Version=EM64L-G16RevA.03\State=1-A\HF=-389.1567534\MP2=-390.573
 8646\RMSD=5.138e-09\RMSF=3.220e-06\Dipole=-0.0723062,0.0256617,-0.0873
 429\PG=C01 [X(C10H18)]\\@


 YOU ARE IN A MAZE OF TWISTY LITTLE PASSAGES.
 Job cpu time:       0 days  0 hours 43 minutes 46.2 seconds.
 Elapsed time:       0 days  0 hours 43 minutes 48.1 seconds.
 File lengths (MBytes):  RWF=     32 Int=      0 D2E=      0 Chk=      7 Scr=      1
 Normal termination of Gaussian 16 at Fri Sep 17 16:41:48 2021.
