 Entering Gaussian System, Link 0=/opt/gaussian/g16_legacy/g16
 Input=01-IsoP_2821_gaussian.com
 Output=01-IsoP_2821_gaussian.log
 Initial command:
 /opt/gaussian/g16_legacy/l1.exe "/scratch-local/jramos/2661378/Gau-6997.inp" -scrdir="/scratch-local/jramos/2661378/"
 Entering Link 1 = /opt/gaussian/g16_legacy/l1.exe PID=      6998.
  
 Copyright (c) 1988,1990,1992,1993,1995,1998,2003,2009,2016,
            Gaussian, Inc.  All Rights Reserved.
  
 This is part of the Gaussian(R) 16 program.  It is based on
 the Gaussian(R) 09 system (copyright 2009, Gaussian, Inc.),
 the Gaussian(R) 03 system (copyright 2003, Gaussian, Inc.),
 the Gaussian(R) 98 system (copyright 1998, Gaussian, Inc.),
 the Gaussian(R) 94 system (copyright 1995, Gaussian, Inc.),
 the Gaussian 92(TM) system (copyright 1992, Gaussian, Inc.),
 the Gaussian 90(TM) system (copyright 1990, Gaussian, Inc.),
 the Gaussian 88(TM) system (copyright 1988, Gaussian, Inc.),
 the Gaussian 86(TM) system (copyright 1986, Carnegie Mellon
 University), and the Gaussian 82(TM) system (copyright 1983,
 Carnegie Mellon University). Gaussian is a federally registered
 trademark of Gaussian, Inc.
  
 This software contains proprietary and confidential information,
 including trade secrets, belonging to Gaussian, Inc.
  
 This software is provided under written license and may be
 used, copied, transmitted, or stored only in accord with that
 written license.
  
 The following legend is applicable only to US Government
 contracts under FAR:
  
                    RESTRICTED RIGHTS LEGEND
  
 Use, reproduction and disclosure by the US Government is
 subject to restrictions as set forth in subparagraphs (a)
 and (c) of the Commercial Computer Software - Restricted
 Rights clause in FAR 52.227-19.
  
 Gaussian, Inc.
 340 Quinnipiac St., Bldg. 40, Wallingford CT 06492
  
  
 ---------------------------------------------------------------
 Warning -- This program may not be used in any manner that
 competes with the business of Gaussian, Inc. or will provide
 assistance to any competitor of Gaussian, Inc.  The licensee
 of this program is prohibited from giving any competitor of
 Gaussian, Inc. access to this program.  By using this program,
 the user acknowledges that Gaussian, Inc. is engaged in the
 business of creating and licensing software in the field of
 computational chemistry and represents and warrants to the
 licensee that it is not a competitor of Gaussian, Inc. and that
 it will not use this program in any manner prohibited above.
 ---------------------------------------------------------------
  

 Cite this work as:
 Gaussian 16, Revision A.03,
 M. J. Frisch, G. W. Trucks, H. B. Schlegel, G. E. Scuseria, 
 M. A. Robb, J. R. Cheeseman, G. Scalmani, V. Barone, 
 G. A. Petersson, H. Nakatsuji, X. Li, M. Caricato, A. V. Marenich, 
 J. Bloino, B. G. Janesko, R. Gomperts, B. Mennucci, H. P. Hratchian, 
 J. V. Ortiz, A. F. Izmaylov, J. L. Sonnenberg, D. Williams-Young, 
 F. Ding, F. Lipparini, F. Egidi, J. Goings, B. Peng, A. Petrone, 
 T. Henderson, D. Ranasinghe, V. G. Zakrzewski, J. Gao, N. Rega, 
 G. Zheng, W. Liang, M. Hada, M. Ehara, K. Toyota, R. Fukuda, 
 J. Hasegawa, M. Ishida, T. Nakajima, Y. Honda, O. Kitao, H. Nakai, 
 T. Vreven, K. Throssell, J. A. Montgomery, Jr., J. E. Peralta, 
 F. Ogliaro, M. J. Bearpark, J. J. Heyd, E. N. Brothers, K. N. Kudin, 
 V. N. Staroverov, T. A. Keith, R. Kobayashi, J. Normand, 
 K. Raghavachari, A. P. Rendell, J. C. Burant, S. S. Iyengar, 
 J. Tomasi, M. Cossi, J. M. Millam, M. Klene, C. Adamo, R. Cammi, 
 J. W. Ochterski, R. L. Martin, K. Morokuma, O. Farkas, 
 J. B. Foresman, and D. J. Fox, Gaussian, Inc., Wallingford CT, 2016.
 
 ******************************************
 Gaussian 16:  EM64L-G16RevA.03 25-Dec-2016
                17-Sep-2021 
 ******************************************
 %chk=01-IsoP_2821_gaussian.chk
 %nproc=1
 Will use up to    1 processors via shared memory.
 %mem=4000Mb
 ---------------------
 #p opt mp2/6-31g(d,p)
 ---------------------
 1/18=20,19=15,38=1/1,3;
 2/9=110,12=2,17=6,18=5,40=1/2;
 3/5=1,6=6,7=101,11=9,25=1,30=1,71=1/1,2,3;
 4//1;
 5/5=2,38=5/2;
 8/6=4,10=2/1;
 9/15=2,16=-3/6;
 10/5=1/2;
 6/7=2,8=2,9=2,10=2/1;
 7/12=2/1,2,3,16;
 1/18=20,19=15/3(2);
 2/9=110/2;
 99//99;
 2/9=110/2;
 3/5=1,6=6,7=101,11=9,25=1,30=1,71=1/1,2,3;
 4/5=5,16=3,69=1/1;
 5/5=2,38=5/2;
 8/6=4,10=2/1;
 9/15=2,16=-3/6;
 10/5=1/2;
 7/12=2/1,2,3,16;
 1/18=20,19=15/3(-8);
 2/9=110/2;
 6/7=2,8=2,9=2,10=2/1;
 99//99;
 Leave Link    1 at Fri Sep 17 14:53:04 2021, MaxMem=   524288000 cpu:               0.0 elap:               0.2
 (Enter /opt/gaussian/g16_legacy/l101.exe)
 --------------------------------------------------
 Conformer number 2821. Energy MM = 23.242 kcal/mol
 --------------------------------------------------
 Symbolic Z-matrix:
 Charge =  0 Multiplicity = 1
 C                     0.9183   -0.607    -0.364 
 H                     0.9795   -0.7345    0.7234 
 H                     1.0167   -1.6219   -0.7723 
 C                     2.0686    0.2408   -0.8666 
 C                     2.5005   -0.0434   -2.2824 
 H                     2.8168   -1.087    -2.3805 
 H                     3.3397    0.5873   -2.5946 
 H                     1.6751    0.1376   -2.978 
 C                     2.7045    1.1739   -0.1306 
 H                     3.5371    1.7143   -0.5803 
 C                     2.3923    1.5972    1.2699 
 H                     2.2855    2.6862    1.3061 
 H                     3.213     1.3133    1.9356 
 H                     1.4668    1.167     1.6592 
 C                    -2.2456    0.5079    1.7609 
 H                    -2.1811    0.1494    2.7941 
 H                    -3.1234    1.1564    1.6757 
 H                    -1.3572    1.118     1.5828 
 C                    -2.37     -0.657     0.8178 
 C                    -3.4836   -1.613     1.1575 
 H                    -4.4462   -1.0912    1.1479 
 H                    -3.5495   -2.4443    0.4477 
 H                    -3.3278   -2.0387    2.1542 
 C                    -1.5735   -0.8802   -0.2457 
 H                    -1.7489   -1.772    -0.8476 
 C                    -0.4441   -0.0187   -0.7446 
 H                    -0.5327    0.0501   -1.8362 
 H                    -0.5307    1.0094   -0.378 
 
 ITRead=  0  0  0  0  0  0  0  0  0  0  0  0  0  0  0  0  0  0  0  0
 ITRead=  0  0  0  0  0  0  0  0
 MicOpt= -1 -1 -1 -1 -1 -1 -1 -1 -1 -1 -1 -1 -1 -1 -1 -1 -1 -1 -1 -1
 MicOpt= -1 -1 -1 -1 -1 -1 -1 -1
 NAtoms=     28 NQM=       28 NQMF=       0 NMMI=      0 NMMIF=      0
                NMic=       0 NMicF=      0.
                    Isotopes and Nuclear Properties:
 (Nuclear quadrupole moments (NQMom) in fm**2, nuclear magnetic moments (NMagM)
  in nuclear magnetons)

  Atom         1           2           3           4           5           6           7           8           9          10
 IAtWgt=          12           1           1          12          12           1           1           1          12           1
 AtmWgt=  12.0000000   1.0078250   1.0078250  12.0000000  12.0000000   1.0078250   1.0078250   1.0078250  12.0000000   1.0078250
 NucSpn=           0           1           1           0           0           1           1           1           0           1
 AtZEff=  -0.0000000  -0.0000000  -0.0000000  -0.0000000  -0.0000000  -0.0000000  -0.0000000  -0.0000000  -0.0000000  -0.0000000
 NQMom=    0.0000000   0.0000000   0.0000000   0.0000000   0.0000000   0.0000000   0.0000000   0.0000000   0.0000000   0.0000000
 NMagM=    0.0000000   2.7928460   2.7928460   0.0000000   0.0000000   2.7928460   2.7928460   2.7928460   0.0000000   2.7928460
 AtZNuc=   6.0000000   1.0000000   1.0000000   6.0000000   6.0000000   1.0000000   1.0000000   1.0000000   6.0000000   1.0000000

  Atom        11          12          13          14          15          16          17          18          19          20
 IAtWgt=          12           1           1           1          12           1           1           1          12          12
 AtmWgt=  12.0000000   1.0078250   1.0078250   1.0078250  12.0000000   1.0078250   1.0078250   1.0078250  12.0000000  12.0000000
 NucSpn=           0           1           1           1           0           1           1           1           0           0
 AtZEff=  -0.0000000  -0.0000000  -0.0000000  -0.0000000  -0.0000000  -0.0000000  -0.0000000  -0.0000000  -0.0000000  -0.0000000
 NQMom=    0.0000000   0.0000000   0.0000000   0.0000000   0.0000000   0.0000000   0.0000000   0.0000000   0.0000000   0.0000000
 NMagM=    0.0000000   2.7928460   2.7928460   2.7928460   0.0000000   2.7928460   2.7928460   2.7928460   0.0000000   0.0000000
 AtZNuc=   6.0000000   1.0000000   1.0000000   1.0000000   6.0000000   1.0000000   1.0000000   1.0000000   6.0000000   6.0000000

  Atom        21          22          23          24          25          26          27          28
 IAtWgt=           1           1           1          12           1          12           1           1
 AtmWgt=   1.0078250   1.0078250   1.0078250  12.0000000   1.0078250  12.0000000   1.0078250   1.0078250
 NucSpn=           1           1           1           0           1           0           1           1
 AtZEff=  -0.0000000  -0.0000000  -0.0000000  -0.0000000  -0.0000000  -0.0000000  -0.0000000  -0.0000000
 NQMom=    0.0000000   0.0000000   0.0000000   0.0000000   0.0000000   0.0000000   0.0000000   0.0000000
 NMagM=    2.7928460   2.7928460   2.7928460   0.0000000   2.7928460   0.0000000   2.7928460   2.7928460
 AtZNuc=   1.0000000   1.0000000   1.0000000   6.0000000   1.0000000   6.0000000   1.0000000   1.0000000
 Leave Link  101 at Fri Sep 17 14:53:04 2021, MaxMem=   524288000 cpu:               0.3 elap:               0.3
 (Enter /opt/gaussian/g16_legacy/l103.exe)

 GradGradGradGradGradGradGradGradGradGradGradGradGradGradGradGradGradGrad
 Berny optimization.
 Initialization pass.
                           ----------------------------
                           !    Initial Parameters    !
                           ! (Angstroms and Degrees)  !
 --------------------------                            --------------------------
 ! Name  Definition              Value          Derivative Info.                !
 --------------------------------------------------------------------------------
 ! R1    R(1,2)                  1.0966         estimate D2E/DX2                !
 ! R2    R(1,3)                  1.0984         estimate D2E/DX2                !
 ! R3    R(1,4)                  1.5148         estimate D2E/DX2                !
 ! R4    R(1,26)                 1.532          estimate D2E/DX2                !
 ! R5    R(4,5)                  1.5072         estimate D2E/DX2                !
 ! R6    R(4,9)                  1.3479         estimate D2E/DX2                !
 ! R7    R(5,6)                  1.0949         estimate D2E/DX2                !
 ! R8    R(5,7)                  1.0952         estimate D2E/DX2                !
 ! R9    R(5,8)                  1.0945         estimate D2E/DX2                !
 ! R10   R(9,10)                 1.0897         estimate D2E/DX2                !
 ! R11   R(9,11)                 1.496          estimate D2E/DX2                !
 ! R12   R(11,12)                1.0948         estimate D2E/DX2                !
 ! R13   R(11,13)                1.0942         estimate D2E/DX2                !
 ! R14   R(11,14)                1.0923         estimate D2E/DX2                !
 ! R15   R(15,16)                1.0955         estimate D2E/DX2                !
 ! R16   R(15,17)                1.0947         estimate D2E/DX2                !
 ! R17   R(15,18)                1.0923         estimate D2E/DX2                !
 ! R18   R(15,19)                1.504          estimate D2E/DX2                !
 ! R19   R(19,20)                1.5065         estimate D2E/DX2                !
 ! R20   R(19,24)                1.3473         estimate D2E/DX2                !
 ! R21   R(20,21)                1.095          estimate D2E/DX2                !
 ! R22   R(20,22)                1.0951         estimate D2E/DX2                !
 ! R23   R(20,23)                1.0949         estimate D2E/DX2                !
 ! R24   R(24,25)                1.0901         estimate D2E/DX2                !
 ! R25   R(24,26)                1.5055         estimate D2E/DX2                !
 ! R26   R(26,27)                1.0973         estimate D2E/DX2                !
 ! R27   R(26,28)                1.0949         estimate D2E/DX2                !
 ! A1    A(2,1,3)              104.8442         estimate D2E/DX2                !
 ! A2    A(2,1,4)              110.5926         estimate D2E/DX2                !
 ! A3    A(2,1,26)             109.9156         estimate D2E/DX2                !
 ! A4    A(3,1,4)              109.0129         estimate D2E/DX2                !
 ! A5    A(3,1,26)             110.0073         estimate D2E/DX2                !
 ! A6    A(4,1,26)             112.2073         estimate D2E/DX2                !
 ! A7    A(1,4,5)              115.0706         estimate D2E/DX2                !
 ! A8    A(1,4,9)              124.3707         estimate D2E/DX2                !
 ! A9    A(5,4,9)              120.5482         estimate D2E/DX2                !
 ! A10   A(4,5,6)              110.2836         estimate D2E/DX2                !
 ! A11   A(4,5,7)              112.2559         estimate D2E/DX2                !
 ! A12   A(4,5,8)              110.4694         estimate D2E/DX2                !
 ! A13   A(6,5,7)              107.5774         estimate D2E/DX2                !
 ! A14   A(6,5,8)              108.5751         estimate D2E/DX2                !
 ! A15   A(7,5,8)              107.5448         estimate D2E/DX2                !
 ! A16   A(4,9,10)             118.5831         estimate D2E/DX2                !
 ! A17   A(4,9,11)             127.4893         estimate D2E/DX2                !
 ! A18   A(10,9,11)            113.9199         estimate D2E/DX2                !
 ! A19   A(9,11,12)            109.4363         estimate D2E/DX2                !
 ! A20   A(9,11,13)            109.8527         estimate D2E/DX2                !
 ! A21   A(9,11,14)            113.5169         estimate D2E/DX2                !
 ! A22   A(12,11,13)           108.1271         estimate D2E/DX2                !
 ! A23   A(12,11,14)           107.296          estimate D2E/DX2                !
 ! A24   A(13,11,14)           108.4501         estimate D2E/DX2                !
 ! A25   A(16,15,17)           108.3289         estimate D2E/DX2                !
 ! A26   A(16,15,18)           106.7776         estimate D2E/DX2                !
 ! A27   A(16,15,19)           110.0479         estimate D2E/DX2                !
 ! A28   A(17,15,18)           107.9749         estimate D2E/DX2                !
 ! A29   A(17,15,19)           110.1035         estimate D2E/DX2                !
 ! A30   A(18,15,19)           113.4308         estimate D2E/DX2                !
 ! A31   A(15,19,20)           114.2847         estimate D2E/DX2                !
 ! A32   A(15,19,24)           125.0574         estimate D2E/DX2                !
 ! A33   A(20,19,24)           120.6551         estimate D2E/DX2                !
 ! A34   A(19,20,21)           110.2099         estimate D2E/DX2                !
 ! A35   A(19,20,22)           112.3374         estimate D2E/DX2                !
 ! A36   A(19,20,23)           110.2919         estimate D2E/DX2                !
 ! A37   A(21,20,22)           107.6478         estimate D2E/DX2                !
 ! A38   A(21,20,23)           108.5627         estimate D2E/DX2                !
 ! A39   A(22,20,23)           107.6642         estimate D2E/DX2                !
 ! A40   A(19,24,25)           118.4399         estimate D2E/DX2                !
 ! A41   A(19,24,26)           127.608          estimate D2E/DX2                !
 ! A42   A(25,24,26)           113.9448         estimate D2E/DX2                !
 ! A43   A(1,26,24)            111.4107         estimate D2E/DX2                !
 ! A44   A(1,26,27)            110.0601         estimate D2E/DX2                !
 ! A45   A(1,26,28)            110.3479         estimate D2E/DX2                !
 ! A46   A(24,26,27)           107.7551         estimate D2E/DX2                !
 ! A47   A(24,26,28)           111.5315         estimate D2E/DX2                !
 ! A48   A(27,26,28)           105.5337         estimate D2E/DX2                !
 ! D1    D(2,1,4,5)            151.4111         estimate D2E/DX2                !
 ! D2    D(2,1,4,9)            -27.4152         estimate D2E/DX2                !
 ! D3    D(3,1,4,5)             36.6435         estimate D2E/DX2                !
 ! D4    D(3,1,4,9)           -142.1828         estimate D2E/DX2                !
 ! D5    D(26,1,4,5)           -85.4666         estimate D2E/DX2                !
 ! D6    D(26,1,4,9)            95.7071         estimate D2E/DX2                !
 ! D7    D(2,1,26,24)          -56.9299         estimate D2E/DX2                !
 ! D8    D(2,1,26,27)         -176.3949         estimate D2E/DX2                !
 ! D9    D(2,1,26,28)           67.5332         estimate D2E/DX2                !
 ! D10   D(3,1,26,24)           58.0253         estimate D2E/DX2                !
 ! D11   D(3,1,26,27)          -61.4398         estimate D2E/DX2                !
 ! D12   D(3,1,26,28)         -177.5117         estimate D2E/DX2                !
 ! D13   D(4,1,26,24)          179.5677         estimate D2E/DX2                !
 ! D14   D(4,1,26,27)           60.1026         estimate D2E/DX2                !
 ! D15   D(4,1,26,28)          -55.9693         estimate D2E/DX2                !
 ! D16   D(1,4,5,6)            -59.4965         estimate D2E/DX2                !
 ! D17   D(1,4,5,7)           -179.4383         estimate D2E/DX2                !
 ! D18   D(1,4,5,8)             60.5335         estimate D2E/DX2                !
 ! D19   D(9,4,5,6)            119.3786         estimate D2E/DX2                !
 ! D20   D(9,4,5,7)             -0.5632         estimate D2E/DX2                !
 ! D21   D(9,4,5,8)           -120.5914         estimate D2E/DX2                !
 ! D22   D(1,4,9,10)           178.5955         estimate D2E/DX2                !
 ! D23   D(1,4,9,11)            -2.4839         estimate D2E/DX2                !
 ! D24   D(5,4,9,10)            -0.17           estimate D2E/DX2                !
 ! D25   D(5,4,9,11)           178.7506         estimate D2E/DX2                !
 ! D26   D(4,9,11,12)         -127.7518         estimate D2E/DX2                !
 ! D27   D(4,9,11,13)          113.6816         estimate D2E/DX2                !
 ! D28   D(4,9,11,14)           -7.9244         estimate D2E/DX2                !
 ! D29   D(10,9,11,12)          51.2113         estimate D2E/DX2                !
 ! D30   D(10,9,11,13)         -67.3554         estimate D2E/DX2                !
 ! D31   D(10,9,11,14)         171.0387         estimate D2E/DX2                !
 ! D32   D(16,15,19,20)         52.7926         estimate D2E/DX2                !
 ! D33   D(16,15,19,24)       -126.6029         estimate D2E/DX2                !
 ! D34   D(17,15,19,20)        -66.5506         estimate D2E/DX2                !
 ! D35   D(17,15,19,24)        114.0539         estimate D2E/DX2                !
 ! D36   D(18,15,19,20)        172.333          estimate D2E/DX2                !
 ! D37   D(18,15,19,24)         -7.0625         estimate D2E/DX2                !
 ! D38   D(15,19,20,21)         59.5912         estimate D2E/DX2                !
 ! D39   D(15,19,20,22)        179.6257         estimate D2E/DX2                !
 ! D40   D(15,19,20,23)        -60.2625         estimate D2E/DX2                !
 ! D41   D(24,19,20,21)       -120.9841         estimate D2E/DX2                !
 ! D42   D(24,19,20,22)         -0.9495         estimate D2E/DX2                !
 ! D43   D(24,19,20,23)        119.1623         estimate D2E/DX2                !
 ! D44   D(15,19,24,25)        178.8349         estimate D2E/DX2                !
 ! D45   D(15,19,24,26)         -2.214          estimate D2E/DX2                !
 ! D46   D(20,19,24,25)         -0.5245         estimate D2E/DX2                !
 ! D47   D(20,19,24,26)        178.4265         estimate D2E/DX2                !
 ! D48   D(19,24,26,1)         103.3635         estimate D2E/DX2                !
 ! D49   D(19,24,26,27)       -135.8118         estimate D2E/DX2                !
 ! D50   D(19,24,26,28)        -20.4313         estimate D2E/DX2                !
 ! D51   D(25,24,26,1)         -77.6457         estimate D2E/DX2                !
 ! D52   D(25,24,26,27)         43.179          estimate D2E/DX2                !
 ! D53   D(25,24,26,28)        158.5595         estimate D2E/DX2                !
 --------------------------------------------------------------------------------
 Trust Radius=3.00D-01 FncErr=1.00D-07 GrdErr=1.00D-07 EigMax=2.50D+02 EigMin=1.00D-04
 Number of steps in this run=    138 maximum allowed number of steps=    168.
 GradGradGradGradGradGradGradGradGradGradGradGradGradGradGradGradGradGrad

 Leave Link  103 at Fri Sep 17 14:53:04 2021, MaxMem=   524288000 cpu:               0.1 elap:               0.1
 (Enter /opt/gaussian/g16_legacy/l202.exe)
                          Input orientation:                          
 ---------------------------------------------------------------------
 Center     Atomic      Atomic             Coordinates (Angstroms)
 Number     Number       Type             X           Y           Z
 ---------------------------------------------------------------------
      1          6           0        0.918300   -0.607000   -0.364000
      2          1           0        0.979500   -0.734500    0.723400
      3          1           0        1.016700   -1.621900   -0.772300
      4          6           0        2.068600    0.240800   -0.866600
      5          6           0        2.500500   -0.043400   -2.282400
      6          1           0        2.816800   -1.087000   -2.380500
      7          1           0        3.339700    0.587300   -2.594600
      8          1           0        1.675100    0.137600   -2.978000
      9          6           0        2.704500    1.173900   -0.130600
     10          1           0        3.537100    1.714300   -0.580300
     11          6           0        2.392300    1.597200    1.269900
     12          1           0        2.285500    2.686200    1.306100
     13          1           0        3.213000    1.313300    1.935600
     14          1           0        1.466800    1.167000    1.659200
     15          6           0       -2.245600    0.507900    1.760900
     16          1           0       -2.181100    0.149400    2.794100
     17          1           0       -3.123400    1.156400    1.675700
     18          1           0       -1.357200    1.118000    1.582800
     19          6           0       -2.370000   -0.657000    0.817800
     20          6           0       -3.483600   -1.613000    1.157500
     21          1           0       -4.446200   -1.091200    1.147900
     22          1           0       -3.549500   -2.444300    0.447700
     23          1           0       -3.327800   -2.038700    2.154200
     24          6           0       -1.573500   -0.880200   -0.245700
     25          1           0       -1.748900   -1.772000   -0.847600
     26          6           0       -0.444100   -0.018700   -0.744600
     27          1           0       -0.532700    0.050100   -1.836200
     28          1           0       -0.530700    1.009400   -0.378000
 ---------------------------------------------------------------------
                    Distance matrix (angstroms):
                    1          2          3          4          5
     1  C    0.000000
     2  H    1.096558   0.000000
     3  H    1.098369   1.739535   0.000000
     4  C    1.514781   2.159965   2.141270   0.000000
     5  C    2.549757   3.438880   2.640781   1.507248   0.000000
     6  H    2.810867   3.624103   2.472405   2.148197   1.094884
     7  H    3.502157   4.280984   3.687502   2.172957   1.095221
     8  H    2.821378   3.865848   2.897317   2.150233   1.094489
     9  C    2.533099   2.710522   3.328205   1.347865   2.480661
    10  H    3.506185   3.773271   4.185631   2.099920   2.657291
    11  C    3.114611   2.780556   4.052834   2.551320   3.914347
    12  H    3.937466   3.707609   4.948669   3.278361   4.513787
    13  H    3.773773   3.263654   4.557615   3.211266   4.487741
    14  H    2.746137   2.174600   3.727297   2.756751   4.250860
    15  C    3.970953   3.608495   4.647123   5.058401   6.259207
    16  H    4.489100   3.880524   5.107116   5.609726   6.908357
    17  H    4.858528   4.616943   5.554465   5.853074   6.980998
    18  H    3.455945   3.103303   4.323072   4.301761   5.583052
    19  C    3.494577   3.351726   3.863831   4.831606   5.805990
    20  C    4.764842   4.569406   4.896622   6.193584   7.078560
    21  H    5.594475   5.453958   5.814816   6.948025   7.818023
    22  H    4.898547   4.848842   4.797387   6.363976   7.058347
    23  H    5.140084   4.722389   5.254789   6.591091   7.591688
    24  C    2.509522   2.734628   2.745280   3.860965   4.630967
    25  H    2.950432   3.314908   2.770694   4.315673   4.806673
    26  C    1.532021   2.166571   2.169091   2.529009   3.322064
    27  H    2.168998   3.074719   2.515573   2.782670   3.067269
    28  H    2.170840   2.556359   3.077931   2.754240   3.731394
                    6          7          8          9         10
     6  H    0.000000
     7  H    1.767072   0.000000
     8  H    1.777676   1.766386   0.000000
     9  C    3.191603   2.611297   3.200198   0.000000
    10  H    3.406880   2.316571   3.420817   1.089718   0.000000
    11  C    4.550885   4.105097   4.548567   1.496012   2.178880
    12  H    5.301918   4.553260   5.022097   2.127609   2.463655
    13  H    4.954506   4.589754   5.281181   2.132413   2.568189
    14  H    4.818941   4.683868   4.754648   2.176082   3.098554
    15  C    6.732221   7.083238   6.161671   5.340863   6.354230
    16  H    7.299601   7.727165   6.941726   5.785547   6.821532
    17  H    7.534692   7.767303   6.761692   6.101430   7.054293
    18  H    6.163769   6.308184   5.563895   4.408659   5.384120
    19  C    6.108757   6.767084   5.603777   5.477427   6.517022
    20  C    7.244940   8.091786   6.839528   6.907865   7.961225
    21  H    8.074701   8.800222   7.483536   7.609057   8.636584
    22  H    7.097236   8.118329   6.760035   7.248332   8.280739
    23  H    7.695801   8.596658   7.490312   7.206230   8.287904
    24  C    4.886192   5.640073   4.365178   4.746984   5.741221
    25  H    4.864630   5.874705   4.461945   5.387503   6.337786
    26  C    3.801434   4.255218   3.082777   3.422422   4.345139
    27  H    3.578884   3.982366   2.487116   3.827723   4.572758
    28  H    4.428392   4.480121   3.519317   3.248813   4.133377
                   11         12         13         14         15
    11  C    0.000000
    12  H    1.094823   0.000000
    13  H    1.094214   1.772394   0.000000
    14  H    1.092326   1.761510   1.773983   0.000000
    15  C    4.789339   5.048039   5.520462   3.771826   0.000000
    16  H    5.033418   5.347898   5.584622   3.953566   1.095529
    17  H    5.548146   5.633213   6.343669   4.590242   1.094689
    18  H    3.792926   3.975560   4.587956   2.825458   1.092335
    19  C    5.288224   5.752313   6.025068   4.330816   1.503963
    20  C    6.696583   7.196368   7.349362   5.699699   2.528824
    21  H    7.348977   7.720723   8.066315   6.350155   2.788464
    22  H    7.232892   7.817039   7.878122   6.298610   3.484270
    23  H    6.835298   7.386006   7.352942   5.788759   2.794819
    24  C    4.915498   5.478976   5.699131   4.130750   2.530807
    25  H    5.743244   6.386733   6.471919   5.026181   3.499847
    26  C    3.835949   4.355751   4.725683   3.291759   3.130534
    27  H    4.538392   4.976477   5.463737   4.178910   4.010329
    28  H    3.406613   3.684947   4.411393   2.857451   2.786984
                   16         17         18         19         20
    16  H    0.000000
    17  H    1.775612   0.000000
    18  H    1.756202   1.769058   0.000000
    19  C    2.142831   2.142901   2.182112   0.000000
    20  C    2.735145   2.840396   3.487236   1.506465   0.000000
    21  H    3.062636   2.660842   3.822515   2.146649   1.094973
    22  H    3.755714   3.828131   4.334122   2.173163   1.095088
    23  H    2.551896   3.237191   3.764906   2.147659   1.094945
    24  C    3.266441   3.200267   2.717168   1.347317   2.480816
    25  H    4.140115   4.102660   3.796363   2.098225   2.656104
    26  C    3.945608   3.797020   2.746385   2.560783   3.924072
    27  H    4.915970   4.502118   3.675564   3.304448   4.520614
    28  H    3.677722   3.310798   2.130641   2.754968   4.237259
                   21         22         23         24         25
    21  H    0.000000
    22  H    1.767832   0.000000
    23  H    1.777980   1.767994   0.000000
    24  C    3.199851   2.613769   3.190488   0.000000
    25  H    3.423585   2.317747   3.402184   1.090117   0.000000
    26  C    4.555065   4.116871   4.560610   1.505532   2.187961
    27  H    5.052019   4.532032   5.300845   2.116226   2.403439
    28  H    4.698088   4.660792   4.850435   2.162296   3.072576
                   26         27         28
    26  C    0.000000
    27  H    1.097349   0.000000
    28  H    1.094936   1.745453   0.000000
 Stoichiometry    C10H18
 Framework group  C1[X(C10H18)]
 Deg. of freedom    78
 Full point group                 C1      NOp   1
 Largest Abelian subgroup         C1      NOp   1
 Largest concise Abelian subgroup C1      NOp   1
                         Standard orientation:                         
 ---------------------------------------------------------------------
 Center     Atomic      Atomic             Coordinates (Angstroms)
 Number     Number       Type             X           Y           Z
 ---------------------------------------------------------------------
      1          6           0        0.793777   -0.586451    0.589186
      2          1           0        0.484575    0.235289    1.246132
      3          1           0        0.745969   -1.484296    1.220060
      4          6           0        2.220855   -0.386974    0.122046
      5          6           0        2.975654   -1.655061   -0.184600
      6          1           0        3.025292   -2.291724    0.704762
      7          1           0        4.003288   -1.458175   -0.508195
      8          1           0        2.478746   -2.212234   -0.984942
      9          6           0        2.820194    0.813955   -0.001651
     10          1           0        3.860419    0.846692   -0.324677
     11          6           0        2.215761    2.161849    0.234770
     12          1           0        2.388756    2.797189   -0.639904
     13          1           0        2.690860    2.635730    1.099075
     14          1           0        1.137396    2.131956    0.406271
     15          6           0       -2.465990    1.425919   -0.456161
     16          1           0       -2.815407    2.072769    0.356044
     17          1           0       -3.076404    1.626113   -1.342536
     18          1           0       -1.439584    1.726035   -0.678909
     19          6           0       -2.593365   -0.018279   -0.056196
     20          6           0       -3.965048   -0.407941    0.429691
     21          1           0       -4.709066   -0.227419   -0.353134
     22          1           0       -4.023746   -1.466007    0.705859
     23          1           0       -4.237050    0.181218    1.311628
     24          6           0       -1.596341   -0.923546   -0.097401
     25          1           0       -1.804007   -1.940139    0.236917
     26          6           0       -0.185998   -0.715616   -0.581473
     27          1           0        0.084185   -1.577145   -1.205126
     28          1           0       -0.111218    0.157013   -1.238597
 ---------------------------------------------------------------------
 Rotational constants (GHZ):           2.2181010           0.5802362           0.4854274
 Leave Link  202 at Fri Sep 17 14:53:05 2021, MaxMem=   524288000 cpu:               0.1 elap:               0.1
 (Enter /opt/gaussian/g16_legacy/l301.exe)
 Standard basis: 6-31G(d,p) (6D, 7F)
 Ernie: Thresh=  0.10000D-02 Tol=  0.10000D-05 Strict=F.
 There are   240 symmetry adapted cartesian basis functions of A   symmetry.
 There are   240 symmetry adapted basis functions of A   symmetry.
   240 basis functions,   406 primitive gaussians,   240 cartesian basis functions
    39 alpha electrons       39 beta electrons
       nuclear repulsion energy       516.4358920676 Hartrees.
 IExCor=    0 DFT=F Ex=HF Corr=None ExCW=0 ScaHFX=  1.000000
 ScaDFX=  1.000000  1.000000  1.000000  1.000000 ScalE2=  1.000000  1.000000
 IRadAn=      5 IRanWt=     -1 IRanGd=            0 ICorTp=0 IEmpDi=  4
 NAtoms=   28 NActive=   28 NUniq=   28 SFac= 1.00D+00 NAtFMM=   60 NAOKFM=F Big=F
 Integral buffers will be    131072 words long.
 Raffenetti 1 integral format.
 Two-electron integral symmetry is turned on.
 Leave Link  301 at Fri Sep 17 14:53:05 2021, MaxMem=   524288000 cpu:               0.1 elap:               0.2
 (Enter /opt/gaussian/g16_legacy/l302.exe)
 NPDir=0 NMtPBC=     1 NCelOv=     1 NCel=       1 NClECP=     1 NCelD=      1
         NCelK=      1 NCelE2=     1 NClLst=     1 CellRange=     0.0.
 One-electron integrals computed using PRISM.
 One-electron integral symmetry used in STVInt
 NBasis=   240 RedAO= T EigKep=  2.10D-03  NBF=   240
 NBsUse=   240 1.00D-06 EigRej= -1.00D+00 NBFU=   240
 Leave Link  302 at Fri Sep 17 14:53:06 2021, MaxMem=   524288000 cpu:               0.4 elap:               0.7
 (Enter /opt/gaussian/g16_legacy/l303.exe)
 DipDrv:  MaxL=1.
 Leave Link  303 at Fri Sep 17 14:53:06 2021, MaxMem=   524288000 cpu:               0.1 elap:               0.1
 (Enter /opt/gaussian/g16_legacy/l401.exe)
 ExpMin= 1.61D-01 ExpMax= 3.05D+03 ExpMxC= 4.57D+02 IAcc=3 IRadAn=         5 AccDes= 0.00D+00
 Harris functional with IExCor=  205 and IRadAn=       5 diagonalized for initial guess.
 HarFok:  IExCor=  205 AccDes= 0.00D+00 IRadAn=         5 IDoV= 1 UseB2=F ITyADJ=14
 ICtDFT=  3500011 ScaDFX=  1.000000  1.000000  1.000000  1.000000
 FoFCou: FMM=F IPFlag=           0 FMFlag=      100000 FMFlg1=           0
         NFxFlg=           0 DoJE=T BraDBF=F KetDBF=T FulRan=T
         wScrn=  0.000000 ICntrl=       500 IOpCl=  0 I1Cent=   200000004 NGrid=           0
         NMat0=    1 NMatS0=      1 NMatT0=    0 NMatD0=    1 NMtDS0=    0 NMtDT0=    0
 Petite list used in FoFCou.
 Harris En= -390.109892467512    
 JPrj=0 DoOrth=F DoCkMO=F.
 Leave Link  401 at Fri Sep 17 14:53:19 2021, MaxMem=   524288000 cpu:              12.6 elap:              12.8
 (Enter /opt/gaussian/g16_legacy/l502.exe)
 Keep R1 ints in memory in canonical form, NReq=425198025.
 FoFCou: FMM=F IPFlag=           0 FMFlag=           0 FMFlg1=           0
         NFxFlg=           0 DoJE=F BraDBF=F KetDBF=F FulRan=T
         wScrn=  0.000000 ICntrl=       600 IOpCl=  0 I1Cent=           0 NGrid=           0
         NMat0=    1 NMatS0=  28920 NMatT0=    0 NMatD0=    1 NMtDS0=    0 NMtDT0=    0
 Symmetry not used in FoFCou.
 Two-electron integral symmetry not used.
 Closed shell SCF:
 Using DIIS extrapolation, IDIIS=  1040.
 NGot=   524288000 LenX=   105970886 LenY=   105912845
 Requested convergence on RMS density matrix=1.00D-08 within 128 cycles.
 Requested convergence on MAX density matrix=1.00D-06.
 Requested convergence on             energy=1.00D-06.
 No special actions if energy rises.

 Cycle   1  Pass 1  IDiag  1:
 E= -388.533178249802    
 DIIS: error= 5.21D-02 at cycle   1 NSaved=   1.
 NSaved= 1 IEnMin= 1 EnMin= -388.533178249802     IErMin= 1 ErrMin= 5.21D-02
 ErrMax= 5.21D-02  0.00D+00 EMaxC= 1.00D-01 BMatC= 8.07D-01 BMatP= 8.07D-01
 IDIUse=3 WtCom= 4.79D-01 WtEn= 5.21D-01
 Coeff-Com:  0.100D+01
 Coeff-En:   0.100D+01
 Coeff:      0.100D+01
 Gap=     0.508 Goal=   None    Shift=    0.000
 GapD=    0.508 DampG=2.000 DampE=0.500 DampFc=1.0000 IDamp=-1.
 RMSDP=4.00D-03 MaxDP=1.14D-01              OVMax= 1.33D-01

 Cycle   2  Pass 1  IDiag  1:
 E= -389.073870313885     Delta-E=       -0.540692064083 Rises=F Damp=F
 DIIS: error= 1.59D-02 at cycle   2 NSaved=   2.
 NSaved= 2 IEnMin= 2 EnMin= -389.073870313885     IErMin= 2 ErrMin= 1.59D-02
 ErrMax= 1.59D-02  0.00D+00 EMaxC= 1.00D-01 BMatC= 8.66D-02 BMatP= 8.07D-01
 IDIUse=3 WtCom= 8.41D-01 WtEn= 1.59D-01
 Coeff-Com:  0.183D+00 0.817D+00
 Coeff-En:   0.000D+00 0.100D+01
 Coeff:      0.154D+00 0.846D+00
 Gap=     0.549 Goal=   None    Shift=    0.000
 RMSDP=1.63D-03 MaxDP=3.04D-02 DE=-5.41D-01 OVMax= 4.61D-02

 Cycle   3  Pass 1  IDiag  1:
 E= -389.151433937532     Delta-E=       -0.077563623647 Rises=F Damp=F
 DIIS: error= 3.43D-03 at cycle   3 NSaved=   3.
 NSaved= 3 IEnMin= 3 EnMin= -389.151433937532     IErMin= 3 ErrMin= 3.43D-03
 ErrMax= 3.43D-03  0.00D+00 EMaxC= 1.00D-01 BMatC= 3.14D-03 BMatP= 8.66D-02
 IDIUse=3 WtCom= 9.66D-01 WtEn= 3.43D-02
 Coeff-Com: -0.245D-01 0.106D+00 0.919D+00
 Coeff-En:   0.000D+00 0.000D+00 0.100D+01
 Coeff:     -0.236D-01 0.102D+00 0.921D+00
 Gap=     0.499 Goal=   None    Shift=    0.000
 RMSDP=2.59D-04 MaxDP=7.14D-03 DE=-7.76D-02 OVMax= 1.01D-02

 Cycle   4  Pass 1  IDiag  1:
 E= -389.155059622312     Delta-E=       -0.003625684781 Rises=F Damp=F
 DIIS: error= 5.31D-04 at cycle   4 NSaved=   4.
 NSaved= 4 IEnMin= 4 EnMin= -389.155059622312     IErMin= 4 ErrMin= 5.31D-04
 ErrMax= 5.31D-04  0.00D+00 EMaxC= 1.00D-01 BMatC= 9.28D-05 BMatP= 3.14D-03
 IDIUse=3 WtCom= 9.95D-01 WtEn= 5.31D-03
 Coeff-Com: -0.424D-02-0.190D-02 0.949D-01 0.911D+00
 Coeff-En:   0.000D+00 0.000D+00 0.000D+00 0.100D+01
 Coeff:     -0.421D-02-0.189D-02 0.944D-01 0.912D+00
 Gap=     0.499 Goal=   None    Shift=    0.000
 RMSDP=7.39D-05 MaxDP=1.49D-03 DE=-3.63D-03 OVMax= 3.14D-03

 Cycle   5  Pass 1  IDiag  1:
 E= -389.155183929934     Delta-E=       -0.000124307622 Rises=F Damp=F
 DIIS: error= 1.63D-04 at cycle   5 NSaved=   5.
 NSaved= 5 IEnMin= 5 EnMin= -389.155183929934     IErMin= 5 ErrMin= 1.63D-04
 ErrMax= 1.63D-04  0.00D+00 EMaxC= 1.00D-01 BMatC= 1.60D-05 BMatP= 9.28D-05
 IDIUse=3 WtCom= 9.98D-01 WtEn= 1.63D-03
 Coeff-Com:  0.241D-02-0.152D-01-0.102D+00 0.176D+00 0.939D+00
 Coeff-En:   0.000D+00 0.000D+00 0.000D+00 0.000D+00 0.100D+01
 Coeff:      0.241D-02-0.152D-01-0.102D+00 0.175D+00 0.939D+00
 Gap=     0.500 Goal=   None    Shift=    0.000
 RMSDP=3.00D-05 MaxDP=6.56D-04 DE=-1.24D-04 OVMax= 9.23D-04

 Cycle   6  Pass 1  IDiag  1:
 E= -389.155205406905     Delta-E=       -0.000021476971 Rises=F Damp=F
 DIIS: error= 3.58D-05 at cycle   6 NSaved=   6.
 NSaved= 6 IEnMin= 6 EnMin= -389.155205406905     IErMin= 6 ErrMin= 3.58D-05
 ErrMax= 3.58D-05  0.00D+00 EMaxC= 1.00D-01 BMatC= 5.50D-07 BMatP= 1.60D-05
 IDIUse=1 WtCom= 1.00D+00 WtEn= 0.00D+00
 Coeff-Com:  0.720D-03-0.335D-02-0.261D-01-0.433D-02 0.177D+00 0.856D+00
 Coeff:      0.720D-03-0.335D-02-0.261D-01-0.433D-02 0.177D+00 0.856D+00
 Gap=     0.500 Goal=   None    Shift=    0.000
 RMSDP=5.30D-06 MaxDP=1.61D-04 DE=-2.15D-05 OVMax= 3.24D-04

 Cycle   7  Pass 1  IDiag  1:
 E= -389.155206247837     Delta-E=       -0.000000840932 Rises=F Damp=F
 DIIS: error= 1.03D-05 at cycle   7 NSaved=   7.
 NSaved= 7 IEnMin= 7 EnMin= -389.155206247837     IErMin= 7 ErrMin= 1.03D-05
 ErrMax= 1.03D-05  0.00D+00 EMaxC= 1.00D-01 BMatC= 5.44D-08 BMatP= 5.50D-07
 IDIUse=1 WtCom= 1.00D+00 WtEn= 0.00D+00
 Coeff-Com: -0.494D-04 0.463D-03 0.301D-02-0.105D-01-0.468D-01 0.145D+00
 Coeff-Com:  0.909D+00
 Coeff:     -0.494D-04 0.463D-03 0.301D-02-0.105D-01-0.468D-01 0.145D+00
 Coeff:      0.909D+00
 Gap=     0.500 Goal=   None    Shift=    0.000
 RMSDP=1.71D-06 MaxDP=4.10D-05 DE=-8.41D-07 OVMax= 8.42D-05

 Cycle   8  Pass 1  IDiag  1:
 E= -389.155206336765     Delta-E=       -0.000000088929 Rises=F Damp=F
 DIIS: error= 3.51D-06 at cycle   8 NSaved=   8.
 NSaved= 8 IEnMin= 8 EnMin= -389.155206336765     IErMin= 8 ErrMin= 3.51D-06
 ErrMax= 3.51D-06  0.00D+00 EMaxC= 1.00D-01 BMatC= 5.09D-09 BMatP= 5.44D-08
 IDIUse=1 WtCom= 1.00D+00 WtEn= 0.00D+00
 Coeff-Com: -0.581D-04 0.249D-03 0.208D-02 0.314D-02-0.171D-01-0.803D-01
 Coeff-Com: -0.123D+00 0.121D+01
 Coeff:     -0.581D-04 0.249D-03 0.208D-02 0.314D-02-0.171D-01-0.803D-01
 Coeff:     -0.123D+00 0.121D+01
 Gap=     0.500 Goal=   None    Shift=    0.000
 RMSDP=7.85D-07 MaxDP=2.40D-05 DE=-8.89D-08 OVMax= 5.80D-05

 Cycle   9  Pass 1  IDiag  1:
 E= -389.155206352616     Delta-E=       -0.000000015851 Rises=F Damp=F
 DIIS: error= 1.46D-06 at cycle   9 NSaved=   9.
 NSaved= 9 IEnMin= 9 EnMin= -389.155206352616     IErMin= 9 ErrMin= 1.46D-06
 ErrMax= 1.46D-06  0.00D+00 EMaxC= 1.00D-01 BMatC= 7.38D-10 BMatP= 5.09D-09
 IDIUse=1 WtCom= 1.00D+00 WtEn= 0.00D+00
 Coeff-Com:  0.926D-05-0.689D-04-0.479D-03 0.144D-02 0.384D-02 0.546D-04
 Coeff-Com: -0.865D-01-0.120D+00 0.120D+01
 Coeff:      0.926D-05-0.689D-04-0.479D-03 0.144D-02 0.384D-02 0.546D-04
 Coeff:     -0.865D-01-0.120D+00 0.120D+01
 Gap=     0.500 Goal=   None    Shift=    0.000
 RMSDP=2.99D-07 MaxDP=1.24D-05 DE=-1.59D-08 OVMax= 2.71D-05

 Cycle  10  Pass 1  IDiag  1:
 E= -389.155206355019     Delta-E=       -0.000000002402 Rises=F Damp=F
 DIIS: error= 3.98D-07 at cycle  10 NSaved=  10.
 NSaved=10 IEnMin=10 EnMin= -389.155206355019     IErMin=10 ErrMin= 3.98D-07
 ErrMax= 3.98D-07  0.00D+00 EMaxC= 1.00D-01 BMatC= 1.22D-10 BMatP= 7.38D-10
 IDIUse=1 WtCom= 1.00D+00 WtEn= 0.00D+00
 Coeff-Com:  0.953D-05-0.465D-04-0.370D-03-0.134D-03 0.234D-02 0.142D-01
 Coeff-Com:  0.590D-02-0.211D+00 0.144D+00 0.105D+01
 Coeff:      0.953D-05-0.465D-04-0.370D-03-0.134D-03 0.234D-02 0.142D-01
 Coeff:      0.590D-02-0.211D+00 0.144D+00 0.105D+01
 Gap=     0.500 Goal=   None    Shift=    0.000
 RMSDP=1.24D-07 MaxDP=3.06D-06 DE=-2.40D-09 OVMax= 9.88D-06

 Cycle  11  Pass 1  IDiag  1:
 E= -389.155206355356     Delta-E=       -0.000000000337 Rises=F Damp=F
 DIIS: error= 1.55D-07 at cycle  11 NSaved=  11.
 NSaved=11 IEnMin=11 EnMin= -389.155206355356     IErMin=11 ErrMin= 1.55D-07
 ErrMax= 1.55D-07  0.00D+00 EMaxC= 1.00D-01 BMatC= 9.55D-12 BMatP= 1.22D-10
 IDIUse=1 WtCom= 1.00D+00 WtEn= 0.00D+00
 Coeff-Com:  0.397D-06 0.826D-06 0.904D-06-0.149D-03-0.305D-03 0.278D-02
 Coeff-Com:  0.110D-01-0.153D-01-0.107D+00 0.163D+00 0.945D+00
 Coeff:      0.397D-06 0.826D-06 0.904D-06-0.149D-03-0.305D-03 0.278D-02
 Coeff:      0.110D-01-0.153D-01-0.107D+00 0.163D+00 0.945D+00
 Gap=     0.500 Goal=   None    Shift=    0.000
 RMSDP=2.77D-08 MaxDP=1.16D-06 DE=-3.37D-10 OVMax= 2.51D-06

 Cycle  12  Pass 1  IDiag  1:
 E= -389.155206355376     Delta-E=       -0.000000000021 Rises=F Damp=F
 DIIS: error= 3.64D-08 at cycle  12 NSaved=  12.
 NSaved=12 IEnMin=12 EnMin= -389.155206355376     IErMin=12 ErrMin= 3.64D-08
 ErrMax= 3.64D-08  0.00D+00 EMaxC= 1.00D-01 BMatC= 1.17D-12 BMatP= 9.55D-12
 IDIUse=1 WtCom= 1.00D+00 WtEn= 0.00D+00
 Coeff-Com: -0.102D-05 0.547D-05 0.429D-04 0.322D-05-0.343D-03-0.126D-02
 Coeff-Com:  0.366D-03 0.217D-01-0.321D-01-0.113D+00 0.977D-01 0.103D+01
 Coeff:     -0.102D-05 0.547D-05 0.429D-04 0.322D-05-0.343D-03-0.126D-02
 Coeff:      0.366D-03 0.217D-01-0.321D-01-0.113D+00 0.977D-01 0.103D+01
 Gap=     0.500 Goal=   None    Shift=    0.000
 RMSDP=1.18D-08 MaxDP=3.33D-07 DE=-2.06D-11 OVMax= 8.47D-07

 Cycle  13  Pass 1  IDiag  1:
 E= -389.155206355369     Delta-E=        0.000000000007 Rises=F Damp=F
 DIIS: error= 1.06D-08 at cycle  13 NSaved=  13.
 NSaved=13 IEnMin=12 EnMin= -389.155206355376     IErMin=13 ErrMin= 1.06D-08
 ErrMax= 1.06D-08  0.00D+00 EMaxC= 1.00D-01 BMatC= 5.48D-14 BMatP= 1.17D-12
 IDIUse=1 WtCom= 1.00D+00 WtEn= 0.00D+00
 Coeff-Com: -0.122D-06 0.462D-06 0.389D-05 0.136D-04-0.170D-04-0.298D-03
 Coeff-Com: -0.849D-03 0.352D-02 0.516D-02-0.212D-01-0.613D-01 0.111D+00
 Coeff-Com:  0.964D+00
 Coeff:     -0.122D-06 0.462D-06 0.389D-05 0.136D-04-0.170D-04-0.298D-03
 Coeff:     -0.849D-03 0.352D-02 0.516D-02-0.212D-01-0.613D-01 0.111D+00
 Coeff:      0.964D+00
 Gap=     0.500 Goal=   None    Shift=    0.000
 RMSDP=2.13D-09 MaxDP=7.04D-08 DE= 7.39D-12 OVMax= 1.05D-07

 SCF Done:  E(RHF) =  -389.155206355     A.U. after   13 cycles
            NFock= 13  Conv=0.21D-08     -V/T= 2.0014
 KE= 3.886257964524D+02 PE=-1.937505466658D+03 EE= 6.432885717829D+02
 Leave Link  502 at Fri Sep 17 14:53:50 2021, MaxMem=   524288000 cpu:              29.7 elap:              30.7
 (Enter /opt/gaussian/g16_legacy/l801.exe)
 ExpMin= 1.61D-01 ExpMax= 3.05D+03 ExpMxC= 4.57D+02 IAcc=3 IRadAn=         5 AccDes= 0.00D+00
 HarFok:  IExCor=  205 AccDes= 0.00D+00 IRadAn=         5 IDoV=-2 UseB2=F ITyADJ=14
 ICtDFT= 12500011 ScaDFX=  1.000000  1.000000  1.000000  1.000000
 Largest valence mixing into a core orbital is  1.98D-04
 Largest core mixing into a valence orbital is  3.52D-05
 Range of M.O.s used for correlation:    11   240
 NBasis=   240 NAE=    39 NBE=    39 NFC=    10 NFV=     0
 NROrb=    230 NOA=    29 NOB=    29 NVA=   201 NVB=   201
 Leave Link  801 at Fri Sep 17 14:53:52 2021, MaxMem=   524288000 cpu:               1.6 elap:               2.0
 (Enter /opt/gaussian/g16_legacy/l906.exe)
 Frozen-core derivative calculation, NFC=  10 NFV=   0.
 FulOut=F Deriv=T AODrv=T NAtomX=    28
   MMem=          88  MDisk=          29 MDiskD=          29
  W3Min=     2246400 MinDsk=     2795480 NBas6D=         240
 NBas2D=       29244    NTT=       28920    LW2=     2040000
    MDV=   523626386 MDiskM=       30186 NBas2p=       24383
 Fully direct method using O(ONN) memory.
 IMap=   1   2   3   4   5   6   7   8   9  10  11  12  13  14  15  16  17  18  19  20
 IMap=  21  22  23  24  25  26  27  28  29  30  31  32  33  34  35  36  37  38  39
 JobTyp=1 Pass  1:  I=  11 to  39 NPSUse=  1 ParTrn=F ParDer=F DoDerP=T.
 Spin components of T(2) and E(2):
     alpha-alpha T2 =       0.5715169461D-01 E2=     -0.1638029585D+00
     alpha-beta  T2 =       0.3618165993D+00 E2=     -0.1089338170D+01
     beta-beta   T2 =       0.5715169461D-01 E2=     -0.1638029585D+00
 The integrals were generated   1 times.
 ANorm=    0.1214956785D+01
 E2 =    -0.1416944087D+01 EUMP2 =    -0.39057215044223D+03
 Leave Link  906 at Fri Sep 17 14:57:50 2021, MaxMem=   524288000 cpu:             237.8 elap:             238.1
 (Enter /opt/gaussian/g16_legacy/l1002.exe)
 Minotr:  Closed shell wavefunction.
          Computing MP2/KS-MP2 derivatives.
          Using Z-Vector for PSCF gradient.
          Skipping F1 and S1 gradient terms here.
          IDoAtm=1111111111111111111111111111
          Frozen-core window.
          Direct CPHF calculation.
          Differentiating once with respect to electric field.
                with respect to dipole field.
          Differentiating once with respect to nuclear coordinates.
          Requested convergence is 1.0D-10 RMS, and 1.0D-09 maximum.
          NewPWx=F KeepS1=T KeepF1=T KeepIn=T MapXYZ=F SortEE=F KeepMc=T.
 Keep R1 ints in memory in canonical form, NReq=425201067.
 FoFCou: FMM=F IPFlag=           0 FMFlag=           0 FMFlg1=           0
         NFxFlg=           0 DoJE=F BraDBF=F KetDBF=F FulRan=T
         wScrn=  0.000000 ICntrl=       600 IOpCl=  0 I1Cent=           0 NGrid=           0
         NMat0=    1 NMatS0=  28920 NMatT0=    0 NMatD0=    1 NMtDS0=    0 NMtDT0=    0
 Symmetry not used in FoFCou.
 Two-electron integral symmetry not used.
          MDV=     524288000 using IRadAn=       5.
          Solving linear equations separately, MaxMat=       0.
          There are     1 degrees of freedom in the 1st order CPHF.  IDoFFX=0 NUNeed=     1.
 LinEq1:  Iter=  0 NonCon=     1 RMS=2.55D-03 Max=3.76D-02 NDo=     1
 AX will form     1 AO Fock derivatives at one time.
 LinEq1:  Iter=  1 NonCon=     1 RMS=6.90D-04 Max=9.75D-03 NDo=     1
 LinEq1:  Iter=  2 NonCon=     1 RMS=1.61D-04 Max=4.14D-03 NDo=     1
 LinEq1:  Iter=  3 NonCon=     1 RMS=4.31D-05 Max=5.08D-04 NDo=     1
 LinEq1:  Iter=  4 NonCon=     1 RMS=1.99D-05 Max=8.55D-04 NDo=     1
 LinEq1:  Iter=  5 NonCon=     1 RMS=5.06D-06 Max=8.27D-05 NDo=     1
 LinEq1:  Iter=  6 NonCon=     1 RMS=1.63D-06 Max=2.69D-05 NDo=     1
 LinEq1:  Iter=  7 NonCon=     1 RMS=4.13D-07 Max=4.18D-06 NDo=     1
 LinEq1:  Iter=  8 NonCon=     1 RMS=1.01D-07 Max=1.86D-06 NDo=     1
 LinEq1:  Iter=  9 NonCon=     1 RMS=2.33D-08 Max=6.32D-07 NDo=     1
 LinEq1:  Iter= 10 NonCon=     1 RMS=6.41D-09 Max=1.63D-07 NDo=     1
 LinEq1:  Iter= 11 NonCon=     1 RMS=1.90D-09 Max=3.62D-08 NDo=     1
 LinEq1:  Iter= 12 NonCon=     1 RMS=4.04D-10 Max=5.91D-09 NDo=     1
 LinEq1:  Iter= 13 NonCon=     1 RMS=1.07D-10 Max=3.03D-09 NDo=     1
 LinEq1:  Iter= 14 NonCon=     0 RMS=3.15D-11 Max=3.26D-10 NDo=     1
 Linear equations converged to 1.000D-10 1.000D-09 after    14 iterations.
 End of Minotr F.D. properties file   721 does not exist.
 End of Minotr F.D. properties file   722 does not exist.
 End of Minotr F.D. properties file   788 does not exist.
 Leave Link 1002 at Fri Sep 17 14:58:27 2021, MaxMem=   524288000 cpu:              36.3 elap:              36.5
 (Enter /opt/gaussian/g16_legacy/l601.exe)
 Copying SCF densities to generalized density rwf, IOpCl= 0 IROHF=0.

 **********************************************************************

            Population analysis using the SCF density.

 **********************************************************************

 Orbital symmetries:
       Occupied  (A) (A) (A) (A) (A) (A) (A) (A) (A) (A) (A) (A)
                 (A) (A) (A) (A) (A) (A) (A) (A) (A) (A) (A) (A)
                 (A) (A) (A) (A) (A) (A) (A) (A) (A) (A) (A) (A)
                 (A) (A) (A)
       Virtual   (A) (A) (A) (A) (A) (A) (A) (A) (A) (A) (A) (A)
                 (A) (A) (A) (A) (A) (A) (A) (A) (A) (A) (A) (A)
                 (A) (A) (A) (A) (A) (A) (A) (A) (A) (A) (A) (A)
                 (A) (A) (A) (A) (A) (A) (A) (A) (A) (A) (A) (A)
                 (A) (A) (A) (A) (A) (A) (A) (A) (A) (A) (A) (A)
                 (A) (A) (A) (A) (A) (A) (A) (A) (A) (A) (A) (A)
                 (A) (A) (A) (A) (A) (A) (A) (A) (A) (A) (A) (A)
                 (A) (A) (A) (A) (A) (A) (A) (A) (A) (A) (A) (A)
                 (A) (A) (A) (A) (A) (A) (A) (A) (A) (A) (A) (A)
                 (A) (A) (A) (A) (A) (A) (A) (A) (A) (A) (A) (A)
                 (A) (A) (A) (A) (A) (A) (A) (A) (A) (A) (A) (A)
                 (A) (A) (A) (A) (A) (A) (A) (A) (A) (A) (A) (A)
                 (A) (A) (A) (A) (A) (A) (A) (A) (A) (A) (A) (A)
                 (A) (A) (A) (A) (A) (A) (A) (A) (A) (A) (A) (A)
                 (A) (A) (A) (A) (A) (A) (A) (A) (A) (A) (A) (A)
                 (A) (A) (A) (A) (A) (A) (A) (A) (A) (A) (A) (A)
                 (A) (A) (A) (A) (A) (A) (A) (A) (A)
 The electronic state is 1-A.
 Alpha  occ. eigenvalues --  -11.23059 -11.22506 -11.21999 -11.21921 -11.21884
 Alpha  occ. eigenvalues --  -11.21650 -11.21555 -11.21486 -11.21457 -11.21436
 Alpha  occ. eigenvalues --   -1.10624  -1.08327  -1.01911  -0.98013  -0.93646
 Alpha  occ. eigenvalues --   -0.91776  -0.86753  -0.82686  -0.70599  -0.69342
 Alpha  occ. eigenvalues --   -0.64585  -0.61545  -0.60102  -0.59030  -0.58088
 Alpha  occ. eigenvalues --   -0.56804  -0.55368  -0.55149  -0.53548  -0.51981
 Alpha  occ. eigenvalues --   -0.51715  -0.51319  -0.50592  -0.49228  -0.48276
 Alpha  occ. eigenvalues --   -0.46013  -0.44274  -0.33357  -0.31525
 Alpha virt. eigenvalues --    0.18456   0.19493   0.22038   0.24453   0.25183
 Alpha virt. eigenvalues --    0.27140   0.28395   0.28931   0.30249   0.30503
 Alpha virt. eigenvalues --    0.31237   0.32116   0.33136   0.33435   0.34031
 Alpha virt. eigenvalues --    0.35677   0.35773   0.36970   0.38998   0.40648
 Alpha virt. eigenvalues --    0.41063   0.42595   0.43320   0.44191   0.45150
 Alpha virt. eigenvalues --    0.51685   0.54047   0.61172   0.62445   0.70138
 Alpha virt. eigenvalues --    0.71101   0.71887   0.74280   0.76417   0.76616
 Alpha virt. eigenvalues --    0.76877   0.78796   0.79455   0.81140   0.82035
 Alpha virt. eigenvalues --    0.83811   0.85656   0.88080   0.91266   0.92027
 Alpha virt. eigenvalues --    0.92896   0.95178   0.97056   0.98262   0.99208
 Alpha virt. eigenvalues --    0.99752   1.00203   1.02303   1.03925   1.06182
 Alpha virt. eigenvalues --    1.07862   1.08639   1.08809   1.11199   1.12387
 Alpha virt. eigenvalues --    1.12560   1.13430   1.14582   1.14926   1.15816
 Alpha virt. eigenvalues --    1.16163   1.16404   1.18223   1.18705   1.20089
 Alpha virt. eigenvalues --    1.20661   1.22067   1.22852   1.25019   1.27542
 Alpha virt. eigenvalues --    1.34168   1.40670   1.41850   1.43741   1.45170
 Alpha virt. eigenvalues --    1.47558   1.53476   1.56256   1.56980   1.58246
 Alpha virt. eigenvalues --    1.59851   1.62721   1.65798   1.69519   1.70790
 Alpha virt. eigenvalues --    1.75333   1.82525   1.92034   1.92195   1.95498
 Alpha virt. eigenvalues --    1.98630   2.01126   2.02847   2.04184   2.08704
 Alpha virt. eigenvalues --    2.09243   2.11120   2.11379   2.13102   2.14503
 Alpha virt. eigenvalues --    2.15425   2.17688   2.19721   2.23578   2.27384
 Alpha virt. eigenvalues --    2.28338   2.29995   2.32201   2.34976   2.35567
 Alpha virt. eigenvalues --    2.35645   2.35782   2.39325   2.39850   2.40350
 Alpha virt. eigenvalues --    2.41282   2.41827   2.43031   2.45160   2.45390
 Alpha virt. eigenvalues --    2.47030   2.48342   2.49337   2.50336   2.54525
 Alpha virt. eigenvalues --    2.56587   2.57721   2.61273   2.62185   2.64353
 Alpha virt. eigenvalues --    2.66338   2.67161   2.72031   2.72992   2.73746
 Alpha virt. eigenvalues --    2.75718   2.77698   2.81089   2.82798   2.85159
 Alpha virt. eigenvalues --    2.87731   2.89152   2.91917   2.93440   2.94436
 Alpha virt. eigenvalues --    2.97091   2.99037   3.01162   3.02601   3.05098
 Alpha virt. eigenvalues --    3.05824   3.06631   3.08508   3.13015   3.15938
 Alpha virt. eigenvalues --    3.17137   3.18163   3.19610   3.20678   3.21265
 Alpha virt. eigenvalues --    3.23191   3.24410   3.26459   3.27244   3.36662
 Alpha virt. eigenvalues --    3.39075   3.44609   3.45611   3.55547   3.57291
 Alpha virt. eigenvalues --    3.58689   3.61053   3.66892   3.73954   3.78199
 Alpha virt. eigenvalues --    3.78868   3.80509   3.81323   3.82331   3.82837
 Alpha virt. eigenvalues --    3.84205   3.85744   3.87658   3.89503   3.91174
 Alpha virt. eigenvalues --    3.95900   4.59097   4.62633   4.74428   4.82816
 Alpha virt. eigenvalues --    4.88837   4.92668   4.93351   5.07551   5.10287
 Alpha virt. eigenvalues --    5.16870
          Condensed to atoms (all electrons):
               1          2          3          4          5          6
     1  C    5.001821   0.412354   0.413506   0.340281  -0.058743  -0.003551
     2  H    0.412354   0.571667  -0.030233  -0.040524   0.003237  -0.000016
     3  H    0.413506  -0.030233   0.588522  -0.045061  -0.004693   0.002571
     4  C    0.340281  -0.040524  -0.045061   4.955116   0.349337  -0.043066
     5  C   -0.058743   0.003237  -0.004693   0.349337   4.896444   0.397379
     6  H   -0.003551  -0.000016   0.002571  -0.043066   0.397379   0.593611
     7  H    0.003675  -0.000103   0.000081  -0.041407   0.406171  -0.027608
     8  H   -0.000530  -0.000031  -0.000276  -0.045810   0.400283  -0.035011
     9  C   -0.044050  -0.002233   0.001918   0.698820  -0.045926  -0.000426
    10  H    0.003079   0.000060  -0.000114  -0.036526  -0.006481   0.000248
    11  C   -0.007062  -0.002135   0.000138  -0.050688   0.003424  -0.000114
    12  H    0.000232  -0.000034  -0.000010   0.000594  -0.000100  -0.000004
    13  H    0.000227   0.000172   0.000028  -0.001413  -0.000116   0.000021
    14  H   -0.001829  -0.001333   0.000004  -0.000420   0.000092  -0.000001
    15  C    0.000597   0.000160  -0.000016  -0.000017  -0.000000  -0.000000
    16  H    0.000077  -0.000076  -0.000001  -0.000002   0.000000  -0.000000
    17  H   -0.000041   0.000014   0.000000   0.000001  -0.000000   0.000000
    18  H   -0.000053  -0.000052  -0.000012  -0.000027  -0.000000  -0.000000
    19  C   -0.003609   0.001046   0.000615   0.000006  -0.000002   0.000000
    20  C   -0.000101  -0.000042  -0.000000   0.000002  -0.000000  -0.000000
    21  H   -0.000004   0.000001   0.000000   0.000000  -0.000000   0.000000
    22  H   -0.000003  -0.000002   0.000002   0.000000  -0.000000  -0.000000
    23  H    0.000022  -0.000005  -0.000001  -0.000000   0.000000  -0.000000
    24  C   -0.063062  -0.000806  -0.000607   0.006130  -0.000158   0.000001
    25  H    0.000004   0.000213   0.001004  -0.000155   0.000010  -0.000002
    26  C    0.326237  -0.039851  -0.044605  -0.057367  -0.000187   0.000027
    27  H   -0.045128   0.004290  -0.002604  -0.001850  -0.000392   0.000093
    28  H   -0.040301  -0.002144   0.004203  -0.001437   0.000317   0.000012
               7          8          9         10         11         12
     1  C    0.003675  -0.000530  -0.044050   0.003079  -0.007062   0.000232
     2  H   -0.000103  -0.000031  -0.002233   0.000060  -0.002135  -0.000034
     3  H    0.000081  -0.000276   0.001918  -0.000114   0.000138  -0.000010
     4  C   -0.041407  -0.045810   0.698820  -0.036526  -0.050688   0.000594
     5  C    0.406171   0.400283  -0.045926  -0.006481   0.003424  -0.000100
     6  H   -0.027608  -0.035011  -0.000426   0.000248  -0.000114  -0.000004
     7  H    0.571052  -0.028079  -0.002738   0.002221   0.000137  -0.000009
     8  H   -0.028079   0.594756  -0.001034   0.000123  -0.000100   0.000015
     9  C   -0.002738  -0.001034   4.939978   0.404868   0.337710  -0.042848
    10  H    0.002221   0.000123   0.404868   0.559356  -0.043637  -0.002647
    11  C    0.000137  -0.000100   0.337710  -0.043637   4.906245   0.403005
    12  H   -0.000009   0.000015  -0.042848  -0.002647   0.403005   0.586795
    13  H   -0.000004  -0.000005  -0.044358  -0.000222   0.400024  -0.033276
    14  H    0.000004   0.000000  -0.041941   0.003315   0.408012  -0.030014
    15  C   -0.000000  -0.000000   0.000010  -0.000000  -0.000097  -0.000004
    16  H   -0.000000   0.000000   0.000000  -0.000000  -0.000003   0.000000
    17  H    0.000000   0.000000   0.000000   0.000000   0.000002  -0.000000
    18  H    0.000000   0.000000  -0.000032   0.000000   0.000040   0.000042
    19  C    0.000000   0.000000   0.000001   0.000000   0.000007   0.000000
    20  C    0.000000  -0.000000  -0.000000   0.000000  -0.000000  -0.000000
    21  H    0.000000   0.000000   0.000000   0.000000  -0.000000  -0.000000
    22  H    0.000000  -0.000000  -0.000000   0.000000   0.000000  -0.000000
    23  H   -0.000000   0.000000  -0.000000  -0.000000   0.000000   0.000000
    24  C    0.000003  -0.000086   0.000070   0.000002  -0.000032  -0.000004
    25  H   -0.000000   0.000012  -0.000002  -0.000000   0.000000   0.000000
    26  C   -0.000097   0.000810  -0.004367  -0.000116   0.000690   0.000091
    27  H   -0.000025  -0.000187   0.000514   0.000004  -0.000030   0.000000
    28  H   -0.000010  -0.000009   0.001216  -0.000044   0.000070  -0.000079
              13         14         15         16         17         18
     1  C    0.000227  -0.001829   0.000597   0.000077  -0.000041  -0.000053
     2  H    0.000172  -0.001333   0.000160  -0.000076   0.000014  -0.000052
     3  H    0.000028   0.000004  -0.000016  -0.000001   0.000000  -0.000012
     4  C   -0.001413  -0.000420  -0.000017  -0.000002   0.000001  -0.000027
     5  C   -0.000116   0.000092  -0.000000   0.000000  -0.000000  -0.000000
     6  H    0.000021  -0.000001  -0.000000  -0.000000   0.000000  -0.000000
     7  H   -0.000004   0.000004  -0.000000  -0.000000   0.000000   0.000000
     8  H   -0.000005   0.000000  -0.000000   0.000000   0.000000   0.000000
     9  C   -0.044358  -0.041941   0.000010   0.000000   0.000000  -0.000032
    10  H   -0.000222   0.003315  -0.000000  -0.000000   0.000000   0.000000
    11  C    0.400024   0.408012  -0.000097  -0.000003   0.000002   0.000040
    12  H   -0.033276  -0.030014  -0.000004   0.000000  -0.000000   0.000042
    13  H    0.584259  -0.026856   0.000002  -0.000000   0.000000  -0.000008
    14  H   -0.026856   0.573918   0.000009   0.000034  -0.000006   0.000571
    15  C    0.000002   0.000009   4.909240   0.402431   0.398280   0.406143
    16  H   -0.000000   0.000034   0.402431   0.586246  -0.033095  -0.030015
    17  H    0.000000  -0.000006   0.398280  -0.033095   0.582473  -0.026271
    18  H   -0.000008   0.000571   0.406143  -0.030015  -0.026271   0.568188
    19  C   -0.000000  -0.000013   0.348392  -0.043933  -0.043816  -0.037055
    20  C    0.000000   0.000000  -0.065378  -0.003431  -0.001683   0.003678
    21  H    0.000000  -0.000000  -0.001105  -0.000507   0.002552  -0.000023
    22  H   -0.000000  -0.000000   0.003695   0.000010  -0.000079  -0.000108
    23  H   -0.000000  -0.000000  -0.002141   0.002847  -0.000371  -0.000072
    24  C    0.000002   0.000003  -0.043322   0.000448  -0.000843  -0.002868
    25  H    0.000000  -0.000001   0.003366  -0.000110  -0.000126   0.000059
    26  C   -0.000050  -0.000212  -0.007535   0.000286   0.000188  -0.001945
    27  H   -0.000000  -0.000008   0.000169  -0.000012   0.000032   0.000031
    28  H    0.000023  -0.000251  -0.002064  -0.000043   0.000056  -0.001170
              19         20         21         22         23         24
     1  C   -0.003609  -0.000101  -0.000004  -0.000003   0.000022  -0.063062
     2  H    0.001046  -0.000042   0.000001  -0.000002  -0.000005  -0.000806
     3  H    0.000615  -0.000000   0.000000   0.000002  -0.000001  -0.000607
     4  C    0.000006   0.000002   0.000000   0.000000  -0.000000   0.006130
     5  C   -0.000002  -0.000000  -0.000000  -0.000000   0.000000  -0.000158
     6  H    0.000000  -0.000000   0.000000  -0.000000  -0.000000   0.000001
     7  H    0.000000   0.000000   0.000000   0.000000  -0.000000   0.000003
     8  H    0.000000  -0.000000   0.000000  -0.000000   0.000000  -0.000086
     9  C    0.000001  -0.000000   0.000000  -0.000000  -0.000000   0.000070
    10  H    0.000000   0.000000   0.000000   0.000000  -0.000000   0.000002
    11  C    0.000007  -0.000000  -0.000000   0.000000   0.000000  -0.000032
    12  H    0.000000  -0.000000  -0.000000  -0.000000   0.000000  -0.000004
    13  H   -0.000000   0.000000   0.000000  -0.000000  -0.000000   0.000002
    14  H   -0.000013   0.000000  -0.000000  -0.000000  -0.000000   0.000003
    15  C    0.348392  -0.065378  -0.001105   0.003695  -0.002141  -0.043322
    16  H   -0.043933  -0.003431  -0.000507   0.000010   0.002847   0.000448
    17  H   -0.043816  -0.001683   0.002552  -0.000079  -0.000371  -0.000843
    18  H   -0.037055   0.003678  -0.000023  -0.000108  -0.000072  -0.002868
    19  C    4.918161   0.352282  -0.045760  -0.040393  -0.044300   0.698206
    20  C    0.352282   4.903259   0.399263   0.405427   0.396987  -0.044864
    21  H   -0.045760   0.399263   0.593077  -0.027563  -0.034904  -0.001137
    22  H   -0.040393   0.405427  -0.027563   0.568029  -0.027376  -0.002384
    23  H   -0.044300   0.396987  -0.034904  -0.027376   0.594314  -0.000547
    24  C    0.698206  -0.044864  -0.001137  -0.002384  -0.000547   4.961462
    25  H   -0.036142  -0.006751   0.000150   0.002177   0.000235   0.402017
    26  C   -0.048265   0.003153  -0.000124   0.000146  -0.000086   0.339922
    27  H    0.000914  -0.000102   0.000012  -0.000011  -0.000002  -0.043342
    28  H    0.000824   0.000071   0.000004   0.000006  -0.000004  -0.043817
              25         26         27         28
     1  C    0.000004   0.326237  -0.045128  -0.040301
     2  H    0.000213  -0.039851   0.004290  -0.002144
     3  H    0.001004  -0.044605  -0.002604   0.004203
     4  C   -0.000155  -0.057367  -0.001850  -0.001437
     5  C    0.000010  -0.000187  -0.000392   0.000317
     6  H   -0.000002   0.000027   0.000093   0.000012
     7  H   -0.000000  -0.000097  -0.000025  -0.000010
     8  H    0.000012   0.000810  -0.000187  -0.000009
     9  C   -0.000002  -0.004367   0.000514   0.001216
    10  H   -0.000000  -0.000116   0.000004  -0.000044
    11  C    0.000000   0.000690  -0.000030   0.000070
    12  H    0.000000   0.000091   0.000000  -0.000079
    13  H    0.000000  -0.000050  -0.000000   0.000023
    14  H   -0.000001  -0.000212  -0.000008  -0.000251
    15  C    0.003366  -0.007535   0.000169  -0.002064
    16  H   -0.000110   0.000286  -0.000012  -0.000043
    17  H   -0.000126   0.000188   0.000032   0.000056
    18  H    0.000059  -0.001945   0.000031  -0.001170
    19  C   -0.036142  -0.048265   0.000914   0.000824
    20  C   -0.006751   0.003153  -0.000102   0.000071
    21  H    0.000150  -0.000124   0.000012   0.000004
    22  H    0.002177   0.000146  -0.000011   0.000006
    23  H    0.000235  -0.000086  -0.000002  -0.000004
    24  C    0.402017   0.339922  -0.043342  -0.043817
    25  H    0.558526  -0.041277  -0.003486   0.003231
    26  C   -0.041277   4.982317   0.413778   0.414873
    27  H   -0.003486   0.413778   0.588463  -0.029600
    28  H    0.003231   0.414873  -0.029600   0.571246
 Mulliken charges:
               1
     1  C   -0.234044
     2  H    0.126405
     3  H    0.115641
     4  C    0.015482
     5  C   -0.339896
     6  H    0.115836
     7  H    0.116734
     8  H    0.115158
     9  C   -0.155151
    10  H    0.116510
    11  C   -0.355607
    12  H    0.118254
    13  H    0.121550
    14  H    0.116921
    15  C   -0.350814
    16  H    0.118850
    17  H    0.122733
    18  H    0.120959
    19  C    0.022834
    20  C   -0.341769
    21  H    0.116067
    22  H    0.118425
    23  H    0.115403
    24  C   -0.160389
    25  H    0.117048
    26  C   -0.236438
    27  H    0.118479
    28  H    0.124819
 Sum of Mulliken charges =  -0.00000
 Mulliken charges with hydrogens summed into heavy atoms:
               1
     1  C    0.008003
     4  C    0.015482
     5  C    0.007832
     9  C   -0.038641
    11  C    0.001118
    15  C    0.011728
    19  C    0.022834
    20  C    0.008126
    24  C   -0.043341
    26  C    0.006860
 Electronic spatial extent (au):  <R**2>=           2423.6437
 Charge=             -0.0000 electrons
 Dipole moment (field-independent basis, Debye):
    X=             -0.2949    Y=              0.1260    Z=             -0.0060  Tot=              0.3207
 Quadrupole moment (field-independent basis, Debye-Ang):
   XX=            -64.5121   YY=            -63.6036   ZZ=            -67.0540
   XY=             -0.6104   XZ=             -0.8620   YZ=             -0.4855
 Traceless Quadrupole moment (field-independent basis, Debye-Ang):
   XX=              0.5444   YY=              1.4530   ZZ=             -1.9974
   XY=             -0.6104   XZ=             -0.8620   YZ=             -0.4855
 Octapole moment (field-independent basis, Debye-Ang**2):
  XXX=             -1.3719  YYY=             -2.7224  ZZZ=              0.1843  XYY=              0.5718
  XXY=              4.5334  XXZ=             -2.6531  XZZ=             -1.5776  YZZ=              1.2271
  YYZ=              1.3690  XYZ=              0.7533
 Hexadecapole moment (field-independent basis, Debye-Ang**3):
 XXXX=          -2492.2708 YYYY=           -696.1216 ZZZZ=           -174.8264 XXXY=              2.3503
 XXXZ=            -11.9278 YYYX=              9.3554 YYYZ=             -3.0534 ZZZX=              0.8394
 ZZZY=             -0.0651 XXYY=           -530.4678 XXZZ=           -456.3107 YYZZ=           -139.1718
 XXYZ=             -4.2478 YYXZ=             -3.1953 ZZXY=             -4.6993
 N-N= 5.164358920676D+02 E-N=-1.937505466771D+03  KE= 3.886257964524D+02
 No NMR shielding tensors so no spin-rotation constants.
 Leave Link  601 at Fri Sep 17 14:58:27 2021, MaxMem=   524288000 cpu:               0.3 elap:               0.3
 (Enter /opt/gaussian/g16_legacy/l701.exe)
 ... and contract with generalized density number  2.
 Compute integral first derivatives.
 Leave Link  701 at Fri Sep 17 14:58:28 2021, MaxMem=   524288000 cpu:               0.3 elap:               0.3
 (Enter /opt/gaussian/g16_legacy/l702.exe)
 L702 exits ... SP integral derivatives will be done elsewhere.
 Leave Link  702 at Fri Sep 17 14:58:28 2021, MaxMem=   524288000 cpu:               0.1 elap:               0.1
 (Enter /opt/gaussian/g16_legacy/l703.exe)
 Integral derivatives from FoFJK, PRISM(SPDF).
 Compute integral first derivatives, UseDBF=F ICtDFT=           0.
 Calling FoFJK, ICntrl=  10002127 FMM=F ISym2X=0 I1Cent= 0 IOpClX= 0 NMat=1 NMatS=1 NMatT=0.
 FoFJK:  IHMeth= 1 ICntrl=10002127 DoSepK=F KAlg= 0 I1Cent=           0 FoldK=F
 IRaf=         0 NMat=       1 IRICut=       1 DoRegI=T DoRafI=F ISym2E= 0 IDoP0=0 IntGTp=1.
 FoFCou: FMM=F IPFlag=           0 FMFlag=      100000 FMFlg1=         800
         NFxFlg=           0 DoJE=F BraDBF=F KetDBF=F FulRan=T
         wScrn=  0.000000 ICntrl=  10002127 IOpCl=  0 I1Cent=           0 NGrid=           0
         NMat0=    1 NMatS0=      1 NMatT0=    0 NMatD0=    1 NMtDS0=    0 NMtDT0=    0
 Symmetry not used in FoFCou.
 Leave Link  703 at Fri Sep 17 14:59:03 2021, MaxMem=   524288000 cpu:              35.4 elap:              35.4
 (Enter /opt/gaussian/g16_legacy/l716.exe)
 Dipole        =-9.11417127D-02 6.68489683D-02-4.79218589D-03
 ***** Axes restored to original set *****
 -------------------------------------------------------------------
 Center     Atomic                   Forces (Hartrees/Bohr)
 Number     Number              X              Y              Z
 -------------------------------------------------------------------
      1        6           0.008450699    0.002309447    0.003547961
      2        1          -0.002422163    0.002794937   -0.002862023
      3        1          -0.001614369    0.003294320   -0.001056320
      4        6           0.005647840   -0.003161028   -0.000332734
      5        6           0.002193947    0.002202149   -0.000881383
      6        1          -0.002483359    0.001636603   -0.001578530
      7        1          -0.003175006   -0.001079747    0.002415143
      8        1           0.001678977   -0.002922521    0.000042440
      9        6          -0.002959645    0.000248357   -0.002420981
     10        1          -0.002214727   -0.002362397   -0.001530427
     11        6          -0.001596634    0.000342927    0.002263009
     12        1           0.001363281   -0.002538196    0.001912656
     13        1          -0.002215400    0.002395757    0.001116361
     14        1           0.002853336   -0.000301594   -0.001838724
     15        6           0.003591582    0.002779880   -0.000571121
     16        1          -0.002691769    0.001054554   -0.002344180
     17        1           0.001184954   -0.001092704    0.002652283
     18        1          -0.002476212   -0.001942114   -0.001490290
     19        6           0.001844136   -0.004685118   -0.001449465
     20        6           0.000394376   -0.002749706   -0.001951633
     21        1           0.001388351   -0.001622981    0.002602225
     22        1           0.001566371    0.003730045    0.001567154
     23        1          -0.002895503    0.001761056   -0.000988745
     24        6          -0.000776573    0.003454467   -0.003914884
     25        1          -0.001324327    0.000573613    0.003095680
     26        6          -0.007871800   -0.000549552    0.000536068
     27        1           0.002601681   -0.000321527    0.002133409
     28        1           0.001957958   -0.003248928    0.001327049
 -------------------------------------------------------------------
 Cartesian Forces:  Max     0.008450699 RMS     0.002574095
 Leave Link  716 at Fri Sep 17 14:59:03 2021, MaxMem=   524288000 cpu:               0.1 elap:               0.1
 (Enter /opt/gaussian/g16_legacy/l103.exe)

 GradGradGradGradGradGradGradGradGradGradGradGradGradGradGradGradGradGrad
 Berny optimization.
 FormGI is forming the generalized inverse of G from B-inverse, IUseBI=4.
 Internal  Forces:  Max     0.004876690 RMS     0.001919028
 Search for a local minimum.
 Step number   1 out of a maximum of  138
 All quantities printed in internal units (Hartrees-Bohrs-Radians)
 RMS Force = .19190D-02 SwitMx=.10000D-02 MixMth= 1
 Mixed Optimization -- RFO/linear search
 Second derivative matrix not updated -- first step.
 ITU=  0
     Eigenvalues ---    0.00342   0.00570   0.00670   0.00680   0.00693
     Eigenvalues ---    0.00714   0.00819   0.01219   0.01287   0.01569
     Eigenvalues ---    0.01641   0.02778   0.02786   0.04018   0.04138
     Eigenvalues ---    0.05349   0.05399   0.06977   0.07035   0.07090
     Eigenvalues ---    0.07092   0.07269   0.07300   0.07347   0.07505
     Eigenvalues ---    0.09277   0.09362   0.12767   0.12843   0.15999
     Eigenvalues ---    0.15999   0.16000   0.16000   0.16000   0.16000
     Eigenvalues ---    0.16000   0.16000   0.16000   0.16000   0.16000
     Eigenvalues ---    0.16000   0.16000   0.16000   0.21858   0.21866
     Eigenvalues ---    0.22000   0.22000   0.24994   0.24997   0.24998
     Eigenvalues ---    0.24999   0.29238   0.30875   0.31629   0.31708
     Eigenvalues ---    0.31804   0.31965   0.32799   0.33863   0.33977
     Eigenvalues ---    0.34066   0.34181   0.34216   0.34231   0.34244
     Eigenvalues ---    0.34247   0.34248   0.34254   0.34261   0.34276
     Eigenvalues ---    0.34299   0.34330   0.34544   0.34545   0.34799
     Eigenvalues ---    0.34845   0.55478   0.55596
 RFO step:  Lambda=-2.96161378D-03 EMin= 3.42376845D-03
 Linear search not attempted -- first point.
 Iteration  1 RMS(Cart)=  0.03968644 RMS(Int)=  0.00072314
 Iteration  2 RMS(Cart)=  0.00093477 RMS(Int)=  0.00016622
 Iteration  3 RMS(Cart)=  0.00000043 RMS(Int)=  0.00016622
 ITry= 1 IFail=0 DXMaxC= 1.81D-01 DCOld= 1.00D+10 DXMaxT= 3.00D-01 DXLimC= 3.00D+00 Rises=F
 Variable       Old X    -DE/DX   Delta X   Delta X   Delta X     New X
                                 (Linear)    (Quad)   (Total)
    R1        2.07220  -0.00330   0.00000  -0.00960  -0.00960   2.06260
    R2        2.07562  -0.00280   0.00000  -0.00818  -0.00818   2.06743
    R3        2.86252  -0.00351   0.00000  -0.01127  -0.01127   2.85125
    R4        2.89510   0.00172   0.00000   0.00583   0.00583   2.90093
    R5        2.84829  -0.00048   0.00000  -0.00150  -0.00150   2.84679
    R6        2.54710  -0.00406   0.00000  -0.00727  -0.00727   2.53982
    R7        2.06903  -0.00214   0.00000  -0.00618  -0.00618   2.06285
    R8        2.06967  -0.00374   0.00000  -0.01085  -0.01085   2.05882
    R9        2.06828  -0.00178   0.00000  -0.00514  -0.00514   2.06315
   R10        2.05927  -0.00223   0.00000  -0.00635  -0.00635   2.05292
   R11        2.82705   0.00312   0.00000   0.00943   0.00943   2.83648
   R12        2.06892  -0.00259   0.00000  -0.00751  -0.00751   2.06141
   R13        2.06776  -0.00160   0.00000  -0.00463  -0.00463   2.06313
   R14        2.06420  -0.00295   0.00000  -0.00848  -0.00848   2.05572
   R15        2.07025  -0.00271   0.00000  -0.00787  -0.00787   2.06238
   R16        2.06866  -0.00180   0.00000  -0.00522  -0.00522   2.06344
   R17        2.06421  -0.00286   0.00000  -0.00820  -0.00820   2.05602
   R18        2.84208  -0.00051   0.00000  -0.00159  -0.00159   2.84049
   R19        2.84681  -0.00077   0.00000  -0.00240  -0.00240   2.84441
   R20        2.54606  -0.00314   0.00000  -0.00562  -0.00562   2.54044
   R21        2.06920  -0.00202   0.00000  -0.00584  -0.00584   2.06336
   R22        2.06942  -0.00394   0.00000  -0.01142  -0.01142   2.05800
   R23        2.06915  -0.00200   0.00000  -0.00578  -0.00578   2.06337
   R24        2.06002  -0.00197   0.00000  -0.00560  -0.00560   2.05442
   R25        2.84504  -0.00150   0.00000  -0.00468  -0.00468   2.84037
   R26        2.07369  -0.00235   0.00000  -0.00686  -0.00686   2.06682
   R27        2.06913  -0.00276   0.00000  -0.00799  -0.00799   2.06114
    A1        1.82988   0.00207   0.00000   0.02250   0.02233   1.85221
    A2        1.93020   0.00043   0.00000   0.00921   0.00925   1.93946
    A3        1.91839  -0.00278   0.00000  -0.02025  -0.02029   1.89810
    A4        1.90263  -0.00069   0.00000  -0.00270  -0.00270   1.89994
    A5        1.91999  -0.00194   0.00000  -0.01718  -0.01722   1.90277
    A6        1.95839   0.00283   0.00000   0.00911   0.00915   1.96753
    A7        2.00836   0.00236   0.00000   0.00965   0.00908   2.01744
    A8        2.17068  -0.00488   0.00000  -0.01891  -0.01945   2.15123
    A9        2.10396   0.00253   0.00000   0.01037   0.00979   2.11376
   A10        1.92481   0.00165   0.00000   0.00899   0.00901   1.93383
   A11        1.95923  -0.00262   0.00000  -0.01309  -0.01305   1.94618
   A12        1.92805   0.00228   0.00000   0.01216   0.01218   1.94024
   A13        1.87758   0.00109   0.00000   0.01018   0.01021   1.88779
   A14        1.89499  -0.00307   0.00000  -0.02472  -0.02472   1.87028
   A15        1.87701   0.00055   0.00000   0.00563   0.00567   1.88268
   A16        2.06967  -0.00194   0.00000  -0.01339  -0.01340   2.05626
   A17        2.22511  -0.00187   0.00000  -0.00837  -0.00838   2.21672
   A18        1.98828   0.00382   0.00000   0.02192   0.02190   2.01018
   A19        1.91002   0.00238   0.00000   0.01563   0.01557   1.92560
   A20        1.91729   0.00394   0.00000   0.02326   0.02322   1.94051
   A21        1.98124  -0.00299   0.00000  -0.01842  -0.01833   1.96291
   A22        1.88717  -0.00310   0.00000  -0.01888  -0.01905   1.86812
   A23        1.87267   0.00052   0.00000   0.00494   0.00501   1.87767
   A24        1.89281  -0.00095   0.00000  -0.00760  -0.00750   1.88531
   A25        1.89070  -0.00240   0.00000  -0.02162  -0.02160   1.86909
   A26        1.86362   0.00201   0.00000   0.01703   0.01704   1.88066
   A27        1.92070   0.00001   0.00000  -0.00081  -0.00079   1.91991
   A28        1.88452   0.00023   0.00000   0.00322   0.00325   1.88776
   A29        1.92167   0.00230   0.00000   0.01163   0.01165   1.93332
   A30        1.97974  -0.00222   0.00000  -0.01023  -0.01021   1.96953
   A31        1.99465   0.00146   0.00000   0.00582   0.00580   2.00044
   A32        2.18266  -0.00329   0.00000  -0.01298  -0.01300   2.16967
   A33        2.10583   0.00183   0.00000   0.00727   0.00725   2.11308
   A34        1.92353   0.00173   0.00000   0.00870   0.00872   1.93225
   A35        1.96066  -0.00277   0.00000  -0.01388  -0.01384   1.94681
   A36        1.92496   0.00220   0.00000   0.01233   0.01236   1.93731
   A37        1.87881   0.00092   0.00000   0.00793   0.00796   1.88677
   A38        1.89478  -0.00312   0.00000  -0.02535  -0.02534   1.86943
   A39        1.87909   0.00093   0.00000   0.00944   0.00948   1.88857
   A40        2.06717  -0.00167   0.00000  -0.01183  -0.01223   2.05493
   A41        2.22718  -0.00226   0.00000  -0.00996  -0.01037   2.21681
   A42        1.98871   0.00395   0.00000   0.02258   0.02216   2.01087
   A43        1.94448   0.00331   0.00000   0.01366   0.01368   1.95817
   A44        1.92091  -0.00239   0.00000  -0.01480  -0.01500   1.90591
   A45        1.92593  -0.00263   0.00000  -0.02484  -0.02490   1.90103
   A46        1.88068   0.00060   0.00000   0.01700   0.01704   1.89773
   A47        1.94659  -0.00053   0.00000  -0.00241  -0.00236   1.94423
   A48        1.84191   0.00155   0.00000   0.01190   0.01164   1.85355
    D1        2.64262   0.00174   0.00000   0.05223   0.05201   2.69464
    D2       -0.47849   0.00076   0.00000  -0.01008  -0.00985  -0.48833
    D3        0.63955  -0.00059   0.00000   0.02162   0.02138   0.66093
    D4       -2.48156  -0.00156   0.00000  -0.04068  -0.04048  -2.52204
    D5       -1.49167   0.00048   0.00000   0.03925   0.03904  -1.45263
[...]
                 (A) (A) (A) (A) (A) (A) (A) (A) (A) (A) (A) (A)
                 (A) (A) (A) (A) (A) (A) (A) (A) (A) (A) (A) (A)
                 (A) (A) (A) (A) (A) (A) (A) (A) (A) (A) (A) (A)
                 (A) (A) (A) (A) (A) (A) (A) (A) (A) (A) (A) (A)
                 (A) (A) (A) (A) (A) (A) (A) (A) (A) (A) (A) (A)
                 (A) (A) (A) (A) (A) (A) (A) (A) (A) (A) (A) (A)
                 (A) (A) (A) (A) (A) (A) (A) (A) (A) (A) (A) (A)
                 (A) (A) (A) (A) (A) (A) (A) (A) (A) (A) (A) (A)
                 (A) (A) (A) (A) (A) (A) (A) (A) (A) (A) (A) (A)
                 (A) (A) (A) (A) (A) (A) (A) (A) (A) (A) (A) (A)
                 (A) (A) (A) (A) (A) (A) (A) (A) (A) (A) (A) (A)
                 (A) (A) (A) (A) (A) (A) (A) (A) (A) (A) (A) (A)
                 (A) (A) (A) (A) (A) (A) (A) (A) (A) (A) (A) (A)
                 (A) (A) (A) (A) (A) (A) (A) (A) (A) (A) (A) (A)
                 (A) (A) (A) (A) (A) (A) (A) (A) (A)
 The electronic state is 1-A.
 Alpha  occ. eigenvalues --  -11.23020 -11.22460 -11.21868 -11.21730 -11.21712
 Alpha  occ. eigenvalues --  -11.21539 -11.21506 -11.21436 -11.21417 -11.21348
 Alpha  occ. eigenvalues --   -1.10821  -1.08492  -1.01823  -0.98143  -0.93838
 Alpha  occ. eigenvalues --   -0.91939  -0.86963  -0.82855  -0.70494  -0.69519
 Alpha  occ. eigenvalues --   -0.64988  -0.61512  -0.60591  -0.58878  -0.58366
 Alpha  occ. eigenvalues --   -0.56774  -0.55298  -0.54966  -0.53295  -0.52261
 Alpha  occ. eigenvalues --   -0.51859  -0.51173  -0.50832  -0.49581  -0.48519
 Alpha  occ. eigenvalues --   -0.46073  -0.44624  -0.33371  -0.31514
 Alpha virt. eigenvalues --    0.18142   0.19779   0.22152   0.24486   0.25192
 Alpha virt. eigenvalues --    0.27439   0.28535   0.28922   0.30318   0.30811
 Alpha virt. eigenvalues --    0.31477   0.32261   0.33202   0.33794   0.34383
 Alpha virt. eigenvalues --    0.35458   0.36114   0.36962   0.39185   0.40602
 Alpha virt. eigenvalues --    0.41328   0.42631   0.43685   0.44253   0.45395
 Alpha virt. eigenvalues --    0.51702   0.54378   0.61070   0.62576   0.70520
 Alpha virt. eigenvalues --    0.71073   0.72196   0.73768   0.76075   0.76177
 Alpha virt. eigenvalues --    0.76620   0.79010   0.79474   0.81070   0.82306
 Alpha virt. eigenvalues --    0.83713   0.85579   0.89117   0.91091   0.91343
 Alpha virt. eigenvalues --    0.92820   0.94745   0.97065   0.98284   0.98818
 Alpha virt. eigenvalues --    0.99710   1.00468   1.01911   1.03844   1.06577
 Alpha virt. eigenvalues --    1.08019   1.08221   1.09393   1.11664   1.12687
 Alpha virt. eigenvalues --    1.13026   1.13870   1.14856   1.15402   1.16045
 Alpha virt. eigenvalues --    1.16257   1.16619   1.18722   1.19116   1.20671
 Alpha virt. eigenvalues --    1.20953   1.23032   1.23885   1.25765   1.28153
 Alpha virt. eigenvalues --    1.34332   1.41723   1.42153   1.44890   1.46395
 Alpha virt. eigenvalues --    1.48456   1.54136   1.55360   1.57256   1.58165
 Alpha virt. eigenvalues --    1.61459   1.63397   1.66485   1.69046   1.69645
 Alpha virt. eigenvalues --    1.73917   1.82243   1.91111   1.93363   1.96231
 Alpha virt. eigenvalues --    1.98688   2.01467   2.02277   2.03942   2.08565
 Alpha virt. eigenvalues --    2.09706   2.10748   2.11744   2.13037   2.14903
 Alpha virt. eigenvalues --    2.15780   2.16940   2.19854   2.23666   2.28347
 Alpha virt. eigenvalues --    2.29590   2.30325   2.33235   2.35347   2.35688
 Alpha virt. eigenvalues --    2.35978   2.36098   2.38923   2.40264   2.41259
 Alpha virt. eigenvalues --    2.42195   2.43169   2.44154   2.45371   2.46084
 Alpha virt. eigenvalues --    2.47201   2.49167   2.49622   2.51174   2.54099
 Alpha virt. eigenvalues --    2.57315   2.58365   2.61888   2.63241   2.64107
 Alpha virt. eigenvalues --    2.67127   2.68175   2.71776   2.73352   2.73474
 Alpha virt. eigenvalues --    2.75815   2.77410   2.80796   2.82634   2.85354
 Alpha virt. eigenvalues --    2.87137   2.89441   2.92178   2.93739   2.94867
 Alpha virt. eigenvalues --    2.97869   2.99094   3.00960   3.02677   3.05807
 Alpha virt. eigenvalues --    3.06402   3.07703   3.09315   3.13762   3.17093
 Alpha virt. eigenvalues --    3.17589   3.19238   3.20046   3.21242   3.22334
 Alpha virt. eigenvalues --    3.24167   3.25050   3.26607   3.27420   3.37866
 Alpha virt. eigenvalues --    3.40355   3.46023   3.46902   3.56200   3.58183
 Alpha virt. eigenvalues --    3.59499   3.62406   3.67928   3.75494   3.78622
 Alpha virt. eigenvalues --    3.80005   3.81570   3.82569   3.83287   3.83898
 Alpha virt. eigenvalues --    3.84750   3.86481   3.87645   3.89820   3.91558
 Alpha virt. eigenvalues --    3.97645   4.59389   4.63170   4.74472   4.82572
 Alpha virt. eigenvalues --    4.88928   4.92582   4.93409   5.07840   5.10766
 Alpha virt. eigenvalues --    5.17766
          Condensed to atoms (all electrons):
               1          2          3          4          5          6
     1  C    5.004767   0.411715   0.414473   0.337355  -0.056085  -0.003698
     2  H    0.411715   0.572983  -0.028296  -0.038988   0.003071  -0.000034
     3  H    0.414473  -0.028296   0.587507  -0.046308  -0.004587   0.002378
     4  C    0.337355  -0.038988  -0.046308   4.952603   0.351934  -0.041506
     5  C   -0.056085   0.003071  -0.004587   0.351934   4.891804   0.397495
     6  H   -0.003698  -0.000034   0.002378  -0.041506   0.397495   0.591921
     7  H    0.003801  -0.000108   0.000106  -0.042765   0.407087  -0.026764
     8  H    0.000011  -0.000005  -0.000489  -0.045679   0.400946  -0.037541
     9  C   -0.047991  -0.001860   0.002531   0.697840  -0.046054  -0.000373
    10  H    0.003272   0.000031  -0.000118  -0.037842  -0.006525   0.000216
    11  C   -0.007749  -0.002811   0.000160  -0.050271   0.003364  -0.000105
    12  H    0.000310  -0.000067  -0.000013  -0.000247  -0.000095  -0.000004
    13  H    0.000152   0.000184   0.000017  -0.000627  -0.000106   0.000017
    14  H   -0.001745  -0.001657   0.000030  -0.000691   0.000109   0.000002
    15  C    0.000587   0.000200  -0.000015  -0.000018  -0.000000   0.000000
    16  H    0.000130  -0.000135  -0.000002  -0.000005   0.000000  -0.000000
    17  H   -0.000040   0.000022   0.000000   0.000001  -0.000000   0.000000
    18  H   -0.000302  -0.000131  -0.000016  -0.000011  -0.000000  -0.000000
    19  C   -0.004325   0.001388   0.000787   0.000041  -0.000003   0.000000
    20  C   -0.000099  -0.000043  -0.000004   0.000001  -0.000000  -0.000000
    21  H   -0.000005   0.000002   0.000000   0.000000  -0.000000   0.000000
    22  H   -0.000003  -0.000002   0.000003   0.000000  -0.000000  -0.000000
    23  H    0.000024  -0.000007  -0.000002  -0.000000   0.000000  -0.000000
    24  C   -0.061827  -0.000504  -0.000900   0.006443  -0.000149   0.000004
    25  H    0.000175   0.000111   0.001011  -0.000152   0.000010  -0.000001
    26  C    0.332330  -0.041801  -0.046074  -0.055544  -0.000661   0.000086
    27  H   -0.046841   0.004515  -0.001931  -0.002075  -0.000289   0.000058
    28  H   -0.042370  -0.003118   0.004477  -0.001813   0.000243   0.000006
               7          8          9         10         11         12
     1  C    0.003801   0.000011  -0.047991   0.003272  -0.007749   0.000310
     2  H   -0.000108  -0.000005  -0.001860   0.000031  -0.002811  -0.000067
     3  H    0.000106  -0.000489   0.002531  -0.000118   0.000160  -0.000013
     4  C   -0.042765  -0.045679   0.697840  -0.037842  -0.050271  -0.000247
     5  C    0.407087   0.400946  -0.046054  -0.006525   0.003364  -0.000095
     6  H   -0.026764  -0.037541  -0.000373   0.000216  -0.000105  -0.000004
     7  H    0.568858  -0.027466  -0.002890   0.002385   0.000132  -0.000006
     8  H   -0.027466   0.596034  -0.001011   0.000135  -0.000101   0.000017
     9  C   -0.002890  -0.001011   4.938970   0.404494   0.340494  -0.041805
    10  H    0.002385   0.000135   0.404494   0.558671  -0.041279  -0.001264
    11  C    0.000132  -0.000101   0.340494  -0.041279   4.900974   0.402169
    12  H   -0.000006   0.000017  -0.041805  -0.001264   0.402169   0.586720
    13  H   -0.000006  -0.000004  -0.041523  -0.001122   0.401144  -0.035462
    14  H    0.000005  -0.000003  -0.043903   0.003299   0.409079  -0.029956
    15  C   -0.000000  -0.000000   0.000015  -0.000000  -0.000147  -0.000015
    16  H   -0.000000   0.000000   0.000000  -0.000000  -0.000009   0.000000
    17  H    0.000000  -0.000000   0.000000   0.000000   0.000003  -0.000000
    18  H    0.000000   0.000000  -0.000045   0.000000   0.000074   0.000114
    19  C    0.000000   0.000000  -0.000001   0.000000   0.000013   0.000001
    20  C    0.000000  -0.000000  -0.000000   0.000000  -0.000000  -0.000000
    21  H    0.000000   0.000000   0.000000   0.000000   0.000000  -0.000000
    22  H    0.000000  -0.000000  -0.000000   0.000000   0.000000  -0.000000
    23  H   -0.000000   0.000000   0.000000  -0.000000  -0.000000   0.000000
    24  C    0.000004  -0.000111   0.000114   0.000002  -0.000031  -0.000009
    25  H   -0.000000   0.000015  -0.000002  -0.000000   0.000000   0.000000
    26  C   -0.000109   0.000609  -0.004911  -0.000113   0.000577   0.000163
    27  H   -0.000050   0.000197   0.000760   0.000001  -0.000033  -0.000000
    28  H   -0.000005  -0.000015   0.001406  -0.000046  -0.000082  -0.000140
              13         14         15         16         17         18
     1  C    0.000152  -0.001745   0.000587   0.000130  -0.000040  -0.000302
     2  H    0.000184  -0.001657   0.000200  -0.000135   0.000022  -0.000131
     3  H    0.000017   0.000030  -0.000015  -0.000002   0.000000  -0.000016
     4  C   -0.000627  -0.000691  -0.000018  -0.000005   0.000001  -0.000011
     5  C   -0.000106   0.000109  -0.000000   0.000000  -0.000000  -0.000000
     6  H    0.000017   0.000002   0.000000  -0.000000   0.000000  -0.000000
     7  H   -0.000006   0.000005  -0.000000  -0.000000   0.000000   0.000000
     8  H   -0.000004  -0.000003  -0.000000   0.000000  -0.000000   0.000000
     9  C   -0.041523  -0.043903   0.000015   0.000000   0.000000  -0.000045
    10  H   -0.001122   0.003299  -0.000000  -0.000000   0.000000   0.000000
    11  C    0.401144   0.409079  -0.000147  -0.000009   0.000003   0.000074
    12  H   -0.035462  -0.029956  -0.000015   0.000000  -0.000000   0.000114
    13  H    0.583648  -0.027132   0.000004  -0.000000   0.000000  -0.000013
    14  H   -0.027132   0.577164  -0.000000   0.000079  -0.000008   0.000412
    15  C    0.000004  -0.000000   4.907254   0.401208   0.399852   0.407154
    16  H   -0.000000   0.000079   0.401208   0.587442  -0.035759  -0.028659
    17  H    0.000000  -0.000008   0.399852  -0.035759   0.584669  -0.026060
    18  H   -0.000013   0.000412   0.407154  -0.028659  -0.026060   0.568221
    19  C   -0.000000  -0.000026   0.350333  -0.043385  -0.043537  -0.037848
    20  C    0.000000   0.000000  -0.064931  -0.002632  -0.002223   0.003725
    21  H    0.000000  -0.000000  -0.001201  -0.000476   0.002766  -0.000031
    22  H   -0.000000  -0.000000   0.003785  -0.000032  -0.000053  -0.000113
    23  H   -0.000000  -0.000000  -0.001975   0.002756  -0.000456  -0.000068
    24  C    0.000002   0.000026  -0.044248  -0.000031  -0.000365  -0.003253
    25  H    0.000000  -0.000002   0.003528  -0.000121  -0.000121   0.000061
    26  C   -0.000037  -0.000737  -0.008144   0.000367   0.000117  -0.002069
    27  H   -0.000000  -0.000010   0.000195  -0.000014   0.000021   0.000058
    28  H    0.000037  -0.000475  -0.002693  -0.000076   0.000113  -0.001675
              19         20         21         22         23         24
     1  C   -0.004325  -0.000099  -0.000005  -0.000003   0.000024  -0.061827
     2  H    0.001388  -0.000043   0.000002  -0.000002  -0.000007  -0.000504
     3  H    0.000787  -0.000004   0.000000   0.000003  -0.000002  -0.000900
     4  C    0.000041   0.000001   0.000000   0.000000  -0.000000   0.006443
     5  C   -0.000003  -0.000000  -0.000000  -0.000000   0.000000  -0.000149
     6  H    0.000000  -0.000000   0.000000  -0.000000  -0.000000   0.000004
     7  H    0.000000   0.000000   0.000000   0.000000  -0.000000   0.000004
     8  H    0.000000  -0.000000   0.000000  -0.000000   0.000000  -0.000111
     9  C   -0.000001  -0.000000   0.000000  -0.000000   0.000000   0.000114
    10  H    0.000000   0.000000   0.000000   0.000000  -0.000000   0.000002
    11  C    0.000013  -0.000000   0.000000   0.000000  -0.000000  -0.000031
    12  H    0.000001  -0.000000  -0.000000  -0.000000   0.000000  -0.000009
    13  H   -0.000000   0.000000   0.000000  -0.000000  -0.000000   0.000002
    14  H   -0.000026   0.000000  -0.000000  -0.000000  -0.000000   0.000026
    15  C    0.350333  -0.064931  -0.001201   0.003785  -0.001975  -0.044248
    16  H   -0.043385  -0.002632  -0.000476  -0.000032   0.002756  -0.000031
    17  H   -0.043537  -0.002223   0.002766  -0.000053  -0.000456  -0.000365
    18  H   -0.037848   0.003725  -0.000031  -0.000113  -0.000068  -0.003253
    19  C    4.914193   0.353753  -0.044274  -0.041639  -0.043899   0.697734
    20  C    0.353753   4.900112   0.398811   0.406218   0.398238  -0.044415
    21  H   -0.044274   0.398811   0.593607  -0.026549  -0.037806  -0.001270
    22  H   -0.041639   0.406218  -0.026549   0.566018  -0.026703  -0.002632
    23  H   -0.043899   0.398238  -0.037806  -0.026703   0.594542  -0.000422
    24  C    0.697734  -0.044415  -0.001270  -0.002632  -0.000422   4.962747
    25  H   -0.038449  -0.006963   0.000187   0.002335   0.000182   0.403391
    26  C   -0.050100   0.003126  -0.000131   0.000148  -0.000068   0.338699
    27  H    0.001583  -0.000094   0.000009  -0.000010  -0.000002  -0.041394
    28  H    0.000438   0.000051   0.000007   0.000007  -0.000005  -0.044060
              25         26         27         28
     1  C    0.000175   0.332330  -0.046841  -0.042370
     2  H    0.000111  -0.041801   0.004515  -0.003118
     3  H    0.001011  -0.046074  -0.001931   0.004477
     4  C   -0.000152  -0.055544  -0.002075  -0.001813
     5  C    0.000010  -0.000661  -0.000289   0.000243
     6  H   -0.000001   0.000086   0.000058   0.000006
     7  H   -0.000000  -0.000109  -0.000050  -0.000005
     8  H    0.000015   0.000609   0.000197  -0.000015
     9  C   -0.000002  -0.004911   0.000760   0.001406
    10  H   -0.000000  -0.000113   0.000001  -0.000046
    11  C    0.000000   0.000577  -0.000033  -0.000082
    12  H    0.000000   0.000163  -0.000000  -0.000140
    13  H    0.000000  -0.000037  -0.000000   0.000037
    14  H   -0.000002  -0.000737  -0.000010  -0.000475
    15  C    0.003528  -0.008144   0.000195  -0.002693
    16  H   -0.000121   0.000367  -0.000014  -0.000076
    17  H   -0.000121   0.000117   0.000021   0.000113
    18  H    0.000061  -0.002069   0.000058  -0.001675
    19  C   -0.038449  -0.050100   0.001583   0.000438
    20  C   -0.006963   0.003126  -0.000094   0.000051
    21  H    0.000187  -0.000131   0.000009   0.000007
    22  H    0.002335   0.000148  -0.000010   0.000007
    23  H    0.000182  -0.000068  -0.000002  -0.000005
    24  C    0.403391   0.338699  -0.041394  -0.044060
    25  H    0.557388  -0.039113  -0.003424   0.003152
    26  C   -0.039113   4.979544   0.413482   0.415850
    27  H   -0.003424   0.413482   0.585267  -0.028362
    28  H    0.003152   0.415850  -0.028362   0.575347
 Mulliken charges:
               1
     1  C   -0.236021
     2  H    0.125346
     3  H    0.115272
     4  C    0.018322
     5  C   -0.341505
     6  H    0.117844
     7  H    0.117792
     8  H    0.114461
     9  C   -0.154256
    10  H    0.115801
    11  C   -0.355567
    12  H    0.119588
    13  H    0.120830
    14  H    0.116140
    15  C   -0.350727
    16  H    0.119352
    17  H    0.121058
    18  H    0.120474
    19  C    0.027222
    20  C   -0.342631
    21  H    0.116356
    22  H    0.119222
    23  H    0.115672
    24  C   -0.163543
    25  H    0.116803
    26  C   -0.235486
    27  H    0.118380
    28  H    0.123802
 Sum of Mulliken charges =  -0.00000
 Mulliken charges with hydrogens summed into heavy atoms:
               1
     1  C    0.004596
     4  C    0.018322
     5  C    0.008593
     9  C   -0.038455
    11  C    0.000991
    15  C    0.010156
    19  C    0.027222
    20  C    0.008618
    24  C   -0.046740
    26  C    0.006696
 Electronic spatial extent (au):  <R**2>=           2384.0047
 Charge=             -0.0000 electrons
 Dipole moment (field-independent basis, Debye):
    X=             -0.3027    Y=              0.1253    Z=              0.0460  Tot=              0.3308
 Quadrupole moment (field-independent basis, Debye-Ang):
   XX=            -64.3024   YY=            -63.2901   ZZ=            -67.3956
   XY=             -0.7521   XZ=             -1.2367   YZ=             -0.3487
 Traceless Quadrupole moment (field-independent basis, Debye-Ang):
   XX=              0.6937   YY=              1.7059   ZZ=             -2.3996
   XY=             -0.7521   XZ=             -1.2367   YZ=             -0.3487
 Octapole moment (field-independent basis, Debye-Ang**2):
  XXX=             -2.6682  YYY=             -2.9989  ZZZ=              0.9000  XYY=              0.6415
  XXY=              4.0909  XXZ=             -2.0918  XZZ=             -1.2120  YZZ=              1.4955
  YYZ=              0.6110  XYZ=              0.3641
 Hexadecapole moment (field-independent basis, Debye-Ang**3):
 XXXX=          -2435.7142 YYYY=           -693.4927 ZZZZ=           -166.6415 XXXY=             -2.3046
 XXXZ=            -14.7514 YYYX=             11.0527 YYYZ=             -1.4214 ZZZX=             -2.8119
 ZZZY=             -0.6411 XXYY=           -520.1242 XXZZ=           -449.2337 YYZZ=           -138.3649
 XXYZ=             -4.2785 YYXZ=             -0.5785 ZZXY=             -5.9188
 N-N= 5.190880528703D+02 E-N=-1.942888844919D+03  KE= 3.887471638992D+02
 No NMR shielding tensors so no spin-rotation constants.
 Leave Link  601 at Fri Sep 17 16:10:33 2021, MaxMem=   524288000 cpu:               0.4 elap:               1.2
 (Enter /opt/gaussian/g16_legacy/l9999.exe)
 1\1\GINC-TRUENO91\FOpt\RMP2-FC\6-31G(d,p)\C10H18\JRAMOS\17-Sep-2021\0\
 \#p opt mp2/6-31g(d,p)\\Conformer number 2821. Energy MM = 23.242 kcal
 /mol\\0,1\C,0.8953167097,-0.5925128478,-0.3427207688\H,0.9227824409,-0
 .7025402585,0.7424773604\H,0.9265336664,-1.605877383,-0.7533367099\C,2
 .0809246418,0.1892988477,-0.8498629911\C,2.5541169255,-0.1736625395,-2
 .2310941833\H,2.9134672499,-1.2046133884,-2.2599508566\H,3.3606384761,
 0.4791916284,-2.5624905907\H,1.739948725,-0.1008793175,-2.9556007874\C
 ,2.6627981669,1.1866475686,-0.158002678\H,3.4950950948,1.7056580637,-0
 .6253923307\C,2.2867850704,1.6741624469,1.2083375331\H,2.0173123007,2.
 73163191,1.1792045652\H,3.1246695536,1.5791607359,1.9016526453\H,1.442
 73121,1.1290635668,1.6247812848\C,-2.1246790806,0.4126530417,1.8442177
 992\H,-1.9453286748,-0.05057754,2.816887524\H,-3.0127846823,1.03936687
 2,1.952269532\H,-1.2789507873,1.0575225865,1.6192050422\C,-2.349714384
 8,-0.6459735956,0.8004110773\C,-3.484619666,-1.5878073469,1.0943301137
 \H,-4.425764558,-1.0424987211,1.1952223336\H,-3.6029503929,-2.32995247
 98,0.3063092415\H,-3.3204496527,-2.1129533857,2.0379815814\C,-1.619032
 8767,-0.7727271403,-0.3233342779\H,-1.8661179674,-1.5944625227,-0.9908
 166262\C,-0.4430606433,0.063215915,-0.7334241196\H,-0.4639241303,0.210
 8380388,-1.8164817678\H,-0.4856427346,1.0585272449,-0.2893789458\\Vers
 ion=EM64L-G16RevA.03\State=1-A\HF=-389.1567534\MP2=-390.5738646\RMSD=5
 .153e-09\RMSF=3.226e-06\Dipole=-0.0738372,0.0049612,0.0896602\PG=C01 [
 X(C10H18)]\\@


 IF YOU'RE NOT PART OF THE SOLUTION,
 THEN YOU'RE PART OF THE PRECIPITATE.
 Job cpu time:       0 days  1 hours 17 minutes 18.9 seconds.
 Elapsed time:       0 days  1 hours 17 minutes 26.2 seconds.
 File lengths (MBytes):  RWF=     32 Int=      0 D2E=      0 Chk=      7 Scr=      1
 Normal termination of Gaussian 16 at Fri Sep 17 16:10:34 2021.
