 Entering Gaussian System, Link 0=/opt/gaussian/g16_legacy/g16
 Input=01-IsoP_394_gaussian.com
 Output=01-IsoP_394_gaussian.log
 Initial command:
 /opt/gaussian/g16_legacy/l1.exe "/scratch-local/jramos/2661416/Gau-7101.inp" -scrdir="/scratch-local/jramos/2661416/"
 Entering Link 1 = /opt/gaussian/g16_legacy/l1.exe PID=      7102.
  
 Copyright (c) 1988,1990,1992,1993,1995,1998,2003,2009,2016,
            Gaussian, Inc.  All Rights Reserved.
  
 This is part of the Gaussian(R) 16 program.  It is based on
 the Gaussian(R) 09 system (copyright 2009, Gaussian, Inc.),
 the Gaussian(R) 03 system (copyright 2003, Gaussian, Inc.),
 the Gaussian(R) 98 system (copyright 1998, Gaussian, Inc.),
 the Gaussian(R) 94 system (copyright 1995, Gaussian, Inc.),
 the Gaussian 92(TM) system (copyright 1992, Gaussian, Inc.),
 the Gaussian 90(TM) system (copyright 1990, Gaussian, Inc.),
 the Gaussian 88(TM) system (copyright 1988, Gaussian, Inc.),
 the Gaussian 86(TM) system (copyright 1986, Carnegie Mellon
 University), and the Gaussian 82(TM) system (copyright 1983,
 Carnegie Mellon University). Gaussian is a federally registered
 trademark of Gaussian, Inc.
  
 This software contains proprietary and confidential information,
 including trade secrets, belonging to Gaussian, Inc.
  
 This software is provided under written license and may be
 used, copied, transmitted, or stored only in accord with that
 written license.
  
 The following legend is applicable only to US Government
 contracts under FAR:
  
                    RESTRICTED RIGHTS LEGEND
  
 Use, reproduction and disclosure by the US Government is
 subject to restrictions as set forth in subparagraphs (a)
 and (c) of the Commercial Computer Software - Restricted
 Rights clause in FAR 52.227-19.
  
 Gaussian, Inc.
 340 Quinnipiac St., Bldg. 40, Wallingford CT 06492
  
  
 ---------------------------------------------------------------
 Warning -- This program may not be used in any manner that
 competes with the business of Gaussian, Inc. or will provide
 assistance to any competitor of Gaussian, Inc.  The licensee
 of this program is prohibited from giving any competitor of
 Gaussian, Inc. access to this program.  By using this program,
 the user acknowledges that Gaussian, Inc. is engaged in the
 business of creating and licensing software in the field of
 computational chemistry and represents and warrants to the
 licensee that it is not a competitor of Gaussian, Inc. and that
 it will not use this program in any manner prohibited above.
 ---------------------------------------------------------------
  

 Cite this work as:
 Gaussian 16, Revision A.03,
 M. J. Frisch, G. W. Trucks, H. B. Schlegel, G. E. Scuseria, 
 M. A. Robb, J. R. Cheeseman, G. Scalmani, V. Barone, 
 G. A. Petersson, H. Nakatsuji, X. Li, M. Caricato, A. V. Marenich, 
 J. Bloino, B. G. Janesko, R. Gomperts, B. Mennucci, H. P. Hratchian, 
 J. V. Ortiz, A. F. Izmaylov, J. L. Sonnenberg, D. Williams-Young, 
 F. Ding, F. Lipparini, F. Egidi, J. Goings, B. Peng, A. Petrone, 
 T. Henderson, D. Ranasinghe, V. G. Zakrzewski, J. Gao, N. Rega, 
 G. Zheng, W. Liang, M. Hada, M. Ehara, K. Toyota, R. Fukuda, 
 J. Hasegawa, M. Ishida, T. Nakajima, Y. Honda, O. Kitao, H. Nakai, 
 T. Vreven, K. Throssell, J. A. Montgomery, Jr., J. E. Peralta, 
 F. Ogliaro, M. J. Bearpark, J. J. Heyd, E. N. Brothers, K. N. Kudin, 
 V. N. Staroverov, T. A. Keith, R. Kobayashi, J. Normand, 
 K. Raghavachari, A. P. Rendell, J. C. Burant, S. S. Iyengar, 
 J. Tomasi, M. Cossi, J. M. Millam, M. Klene, C. Adamo, R. Cammi, 
 J. W. Ochterski, R. L. Martin, K. Morokuma, O. Farkas, 
 J. B. Foresman, and D. J. Fox, Gaussian, Inc., Wallingford CT, 2016.
 
 ******************************************
 Gaussian 16:  EM64L-G16RevA.03 25-Dec-2016
                17-Sep-2021 
 ******************************************
 %chk=01-IsoP_394_gaussian.chk
 %nproc=1
 Will use up to    1 processors via shared memory.
 %mem=4000Mb
 ---------------------
 #p opt mp2/6-31g(d,p)
 ---------------------
 1/18=20,19=15,38=1/1,3;
 2/9=110,12=2,17=6,18=5,40=1/2;
 3/5=1,6=6,7=101,11=9,25=1,30=1,71=1/1,2,3;
 4//1;
 5/5=2,38=5/2;
 8/6=4,10=2/1;
 9/15=2,16=-3/6;
 10/5=1/2;
 6/7=2,8=2,9=2,10=2/1;
 7/12=2/1,2,3,16;
 1/18=20,19=15/3(2);
 2/9=110/2;
 99//99;
 2/9=110/2;
 3/5=1,6=6,7=101,11=9,25=1,30=1,71=1/1,2,3;
 4/5=5,16=3,69=1/1;
 5/5=2,38=5/2;
 8/6=4,10=2/1;
 9/15=2,16=-3/6;
 10/5=1/2;
 7/12=2/1,2,3,16;
 1/18=20,19=15/3(-8);
 2/9=110/2;
 6/7=2,8=2,9=2,10=2/1;
 99//99;
 Leave Link    1 at Fri Sep 17 15:33:24 2021, MaxMem=   524288000 cpu:               0.0 elap:               0.1
 (Enter /opt/gaussian/g16_legacy/l101.exe)
 -------------------------------------------------
 Conformer number 394. Energy MM = 23.242 kcal/mol
 -------------------------------------------------
 Symbolic Z-matrix:
 Charge =  0 Multiplicity = 1
 C                     0.9814    0.6589    0.2732 
 H                     1.1833    1.7383    0.2539 
 H                     0.4743    0.4849    1.2298 
 C                     2.297    -0.0903    0.2237 
 C                     3.3573    0.5379   -0.644 
 H                     3.5875    1.5483   -0.2905 
 H                     3.0149    0.6011   -1.6816 
 H                     4.2907   -0.035    -0.6387 
 C                     2.5534   -1.2237    0.9064 
 H                     3.5425   -1.6725    0.8192 
 C                     1.6156   -1.9888    1.7859 
 H                     1.9601   -1.9448    2.8235 
 H                     0.5868   -1.6241    1.7475 
 H                     1.6006   -3.0388    1.4762 
 C                    -2.7112   -0.7934    0.1165 
 H                    -3.3657   -1.3407   -0.5695 
 H                    -1.805    -1.3856    0.2621 
 H                    -3.2081   -0.7309    1.0907 
 C                    -2.444     0.5877   -0.4156 
 C                    -3.6553    1.4825   -0.4527 
 H                    -3.4263    2.4766   -0.851 
 H                    -4.0613    1.6139    0.5556 
 H                    -4.4319    1.0418   -1.0865 
 C                    -1.2427    1.0404   -0.8249 
 H                    -1.1676    2.0702   -1.1744 
 C                     0.0543    0.2783   -0.8856 
 H                    -0.1154   -0.8034   -0.898 
 H                     0.5348    0.5114   -1.8442 
 
 ITRead=  0  0  0  0  0  0  0  0  0  0  0  0  0  0  0  0  0  0  0  0
 ITRead=  0  0  0  0  0  0  0  0
 MicOpt= -1 -1 -1 -1 -1 -1 -1 -1 -1 -1 -1 -1 -1 -1 -1 -1 -1 -1 -1 -1
 MicOpt= -1 -1 -1 -1 -1 -1 -1 -1
 NAtoms=     28 NQM=       28 NQMF=       0 NMMI=      0 NMMIF=      0
                NMic=       0 NMicF=      0.
                    Isotopes and Nuclear Properties:
 (Nuclear quadrupole moments (NQMom) in fm**2, nuclear magnetic moments (NMagM)
  in nuclear magnetons)

  Atom         1           2           3           4           5           6           7           8           9          10
 IAtWgt=          12           1           1          12          12           1           1           1          12           1
 AtmWgt=  12.0000000   1.0078250   1.0078250  12.0000000  12.0000000   1.0078250   1.0078250   1.0078250  12.0000000   1.0078250
 NucSpn=           0           1           1           0           0           1           1           1           0           1
 AtZEff=  -0.0000000  -0.0000000  -0.0000000  -0.0000000  -0.0000000  -0.0000000  -0.0000000  -0.0000000  -0.0000000  -0.0000000
 NQMom=    0.0000000   0.0000000   0.0000000   0.0000000   0.0000000   0.0000000   0.0000000   0.0000000   0.0000000   0.0000000
 NMagM=    0.0000000   2.7928460   2.7928460   0.0000000   0.0000000   2.7928460   2.7928460   2.7928460   0.0000000   2.7928460
 AtZNuc=   6.0000000   1.0000000   1.0000000   6.0000000   6.0000000   1.0000000   1.0000000   1.0000000   6.0000000   1.0000000

  Atom        11          12          13          14          15          16          17          18          19          20
 IAtWgt=          12           1           1           1          12           1           1           1          12          12
 AtmWgt=  12.0000000   1.0078250   1.0078250   1.0078250  12.0000000   1.0078250   1.0078250   1.0078250  12.0000000  12.0000000
 NucSpn=           0           1           1           1           0           1           1           1           0           0
 AtZEff=  -0.0000000  -0.0000000  -0.0000000  -0.0000000  -0.0000000  -0.0000000  -0.0000000  -0.0000000  -0.0000000  -0.0000000
 NQMom=    0.0000000   0.0000000   0.0000000   0.0000000   0.0000000   0.0000000   0.0000000   0.0000000   0.0000000   0.0000000
 NMagM=    0.0000000   2.7928460   2.7928460   2.7928460   0.0000000   2.7928460   2.7928460   2.7928460   0.0000000   0.0000000
 AtZNuc=   6.0000000   1.0000000   1.0000000   1.0000000   6.0000000   1.0000000   1.0000000   1.0000000   6.0000000   6.0000000

  Atom        21          22          23          24          25          26          27          28
 IAtWgt=           1           1           1          12           1          12           1           1
 AtmWgt=   1.0078250   1.0078250   1.0078250  12.0000000   1.0078250  12.0000000   1.0078250   1.0078250
 NucSpn=           1           1           1           0           1           0           1           1
 AtZEff=  -0.0000000  -0.0000000  -0.0000000  -0.0000000  -0.0000000  -0.0000000  -0.0000000  -0.0000000
 NQMom=    0.0000000   0.0000000   0.0000000   0.0000000   0.0000000   0.0000000   0.0000000   0.0000000
 NMagM=    2.7928460   2.7928460   2.7928460   0.0000000   2.7928460   0.0000000   2.7928460   2.7928460
 AtZNuc=   1.0000000   1.0000000   1.0000000   6.0000000   1.0000000   6.0000000   1.0000000   1.0000000
 Leave Link  101 at Fri Sep 17 15:33:25 2021, MaxMem=   524288000 cpu:               0.3 elap:               0.3
 (Enter /opt/gaussian/g16_legacy/l103.exe)

 GradGradGradGradGradGradGradGradGradGradGradGradGradGradGradGradGradGrad
 Berny optimization.
 Initialization pass.
                           ----------------------------
                           !    Initial Parameters    !
                           ! (Angstroms and Degrees)  !
 --------------------------                            --------------------------
 ! Name  Definition              Value          Derivative Info.                !
 --------------------------------------------------------------------------------
 ! R1    R(1,2)                  1.0983         estimate D2E/DX2                !
 ! R2    R(1,3)                  1.0966         estimate D2E/DX2                !
 ! R3    R(1,4)                  1.5148         estimate D2E/DX2                !
 ! R4    R(1,26)                 1.5321         estimate D2E/DX2                !
 ! R5    R(4,5)                  1.5072         estimate D2E/DX2                !
 ! R6    R(4,9)                  1.3477         estimate D2E/DX2                !
 ! R7    R(5,6)                  1.0949         estimate D2E/DX2                !
 ! R8    R(5,7)                  1.0945         estimate D2E/DX2                !
 ! R9    R(5,8)                  1.0952         estimate D2E/DX2                !
 ! R10   R(9,10)                 1.0897         estimate D2E/DX2                !
 ! R11   R(9,11)                 1.4961         estimate D2E/DX2                !
 ! R12   R(11,12)                1.0942         estimate D2E/DX2                !
 ! R13   R(11,13)                1.0922         estimate D2E/DX2                !
 ! R14   R(11,14)                1.0948         estimate D2E/DX2                !
 ! R15   R(15,16)                1.0948         estimate D2E/DX2                !
 ! R16   R(15,17)                1.0923         estimate D2E/DX2                !
 ! R17   R(15,18)                1.0954         estimate D2E/DX2                !
 ! R18   R(15,19)                1.504          estimate D2E/DX2                !
 ! R19   R(19,20)                1.5064         estimate D2E/DX2                !
 ! R20   R(19,24)                1.3474         estimate D2E/DX2                !
 ! R21   R(20,21)                1.0951         estimate D2E/DX2                !
 ! R22   R(20,22)                1.0949         estimate D2E/DX2                !
 ! R23   R(20,23)                1.095          estimate D2E/DX2                !
 ! R24   R(24,25)                1.0901         estimate D2E/DX2                !
 ! R25   R(24,26)                1.5056         estimate D2E/DX2                !
 ! R26   R(26,27)                1.095          estimate D2E/DX2                !
 ! R27   R(26,28)                1.0973         estimate D2E/DX2                !
 ! A1    A(2,1,3)              104.8497         estimate D2E/DX2                !
 ! A2    A(2,1,4)              109.0173         estimate D2E/DX2                !
 ! A3    A(2,1,26)             110.0051         estimate D2E/DX2                !
 ! A4    A(3,1,4)              110.5886         estimate D2E/DX2                !
 ! A5    A(3,1,26)             109.9109         estimate D2E/DX2                !
 ! A6    A(4,1,26)             112.2086         estimate D2E/DX2                !
 ! A7    A(1,4,5)              115.0648         estimate D2E/DX2                !
 ! A8    A(1,4,9)              124.3752         estimate D2E/DX2                !
 ! A9    A(5,4,9)              120.5497         estimate D2E/DX2                !
 ! A10   A(4,5,6)              110.2826         estimate D2E/DX2                !
 ! A11   A(4,5,7)              110.473          estimate D2E/DX2                !
 ! A12   A(4,5,8)              112.2552         estimate D2E/DX2                !
 ! A13   A(6,5,7)              108.5762         estimate D2E/DX2                !
 ! A14   A(6,5,8)              107.5761         estimate D2E/DX2                !
 ! A15   A(7,5,8)              107.543          estimate D2E/DX2                !
 ! A16   A(4,9,10)             118.5889         estimate D2E/DX2                !
 ! A17   A(4,9,11)             127.4875         estimate D2E/DX2                !
 ! A18   A(10,9,11)            113.9158         estimate D2E/DX2                !
 ! A19   A(9,11,12)            109.8488         estimate D2E/DX2                !
 ! A20   A(9,11,13)            113.5161         estimate D2E/DX2                !
 ! A21   A(9,11,14)            109.4358         estimate D2E/DX2                !
 ! A22   A(12,11,13)           108.4504         estimate D2E/DX2                !
 ! A23   A(12,11,14)           108.1273         estimate D2E/DX2                !
 ! A24   A(13,11,14)           107.3009         estimate D2E/DX2                !
 ! A25   A(16,15,17)           107.9676         estimate D2E/DX2                !
 ! A26   A(16,15,18)           108.3377         estimate D2E/DX2                !
 ! A27   A(16,15,19)           110.0963         estimate D2E/DX2                !
 ! A28   A(17,15,18)           106.7819         estimate D2E/DX2                !
 ! A29   A(17,15,19)           113.4302         estimate D2E/DX2                !
 ! A30   A(18,15,19)           110.0505         estimate D2E/DX2                !
 ! A31   A(15,19,20)           114.2876         estimate D2E/DX2                !
 ! A32   A(15,19,24)           125.0565         estimate D2E/DX2                !
 ! A33   A(20,19,24)           120.6532         estimate D2E/DX2                !
 ! A34   A(19,20,21)           112.3342         estimate D2E/DX2                !
 ! A35   A(19,20,22)           110.2903         estimate D2E/DX2                !
 ! A36   A(19,20,23)           110.2108         estimate D2E/DX2                !
 ! A37   A(21,20,22)           107.6702         estimate D2E/DX2                !
 ! A38   A(21,20,23)           107.6454         estimate D2E/DX2                !
 ! A39   A(22,20,23)           108.5631         estimate D2E/DX2                !
 ! A40   A(19,24,25)           118.4379         estimate D2E/DX2                !
 ! A41   A(19,24,26)           127.6059         estimate D2E/DX2                !
 ! A42   A(25,24,26)           113.949          estimate D2E/DX2                !
 ! A43   A(1,26,24)            111.4116         estimate D2E/DX2                !
 ! A44   A(1,26,27)            110.35           estimate D2E/DX2                !
 ! A45   A(1,26,28)            110.0596         estimate D2E/DX2                !
 ! A46   A(24,26,27)           111.5302         estimate D2E/DX2                !
 ! A47   A(24,26,28)           107.7532         estimate D2E/DX2                !
 ! A48   A(27,26,28)           105.5342         estimate D2E/DX2                !
 ! D1    D(2,1,4,5)            -36.6474         estimate D2E/DX2                !
 ! D2    D(2,1,4,9)            142.1855         estimate D2E/DX2                !
 ! D3    D(3,1,4,5)           -151.4219         estimate D2E/DX2                !
 ! D4    D(3,1,4,9)             27.4111         estimate D2E/DX2                !
 ! D5    D(26,1,4,5)            85.4638         estimate D2E/DX2                !
 ! D6    D(26,1,4,9)           -95.7033         estimate D2E/DX2                !
 ! D7    D(2,1,26,24)          -58.0214         estimate D2E/DX2                !
 ! D8    D(2,1,26,27)          177.5151         estimate D2E/DX2                !
 ! D9    D(2,1,26,28)           61.4415         estimate D2E/DX2                !
 ! D10   D(3,1,26,24)           56.9365         estimate D2E/DX2                !
 ! D11   D(3,1,26,27)          -67.5271         estimate D2E/DX2                !
 ! D12   D(3,1,26,28)          176.3993         estimate D2E/DX2                !
 ! D13   D(4,1,26,24)         -179.5687         estimate D2E/DX2                !
 ! D14   D(4,1,26,27)           55.9677         estimate D2E/DX2                !
 ! D15   D(4,1,26,28)          -60.1058         estimate D2E/DX2                !
 ! D16   D(1,4,5,6)             59.5013         estimate D2E/DX2                !
 ! D17   D(1,4,5,7)            -60.5318         estimate D2E/DX2                !
 ! D18   D(1,4,5,8)            179.4403         estimate D2E/DX2                !
 ! D19   D(9,4,5,6)           -119.3802         estimate D2E/DX2                !
 ! D20   D(9,4,5,7)            120.5867         estimate D2E/DX2                !
 ! D21   D(9,4,5,8)              0.5588         estimate D2E/DX2                !
 ! D22   D(1,4,9,10)          -178.6021         estimate D2E/DX2                !
 ! D23   D(1,4,9,11)             2.484          estimate D2E/DX2                !
 ! D24   D(5,4,9,10)             0.1704         estimate D2E/DX2                !
 ! D25   D(5,4,9,11)          -178.7436         estimate D2E/DX2                !
 ! D26   D(4,9,11,12)         -113.6836         estimate D2E/DX2                !
 ! D27   D(4,9,11,13)            7.9193         estimate D2E/DX2                !
 ! D28   D(4,9,11,14)          127.752          estimate D2E/DX2                !
 ! D29   D(10,9,11,12)          67.3596         estimate D2E/DX2                !
 ! D30   D(10,9,11,13)        -171.0375         estimate D2E/DX2                !
 ! D31   D(10,9,11,14)         -51.2048         estimate D2E/DX2                !
 ! D32   D(16,15,19,20)         66.558          estimate D2E/DX2                !
 ! D33   D(16,15,19,24)       -114.048          estimate D2E/DX2                !
 ! D34   D(17,15,19,20)       -172.3406         estimate D2E/DX2                !
 ! D35   D(17,15,19,24)          7.0534         estimate D2E/DX2                !
 ! D36   D(18,15,19,20)        -52.7932         estimate D2E/DX2                !
 ! D37   D(18,15,19,24)        126.6007         estimate D2E/DX2                !
 ! D38   D(15,19,20,21)       -179.6255         estimate D2E/DX2                !
 ! D39   D(15,19,20,22)         60.2583         estimate D2E/DX2                !
 ! D40   D(15,19,20,23)        -59.5955         estimate D2E/DX2                !
 ! D41   D(24,19,20,21)          0.9512         estimate D2E/DX2                !
 ! D42   D(24,19,20,22)       -119.165          estimate D2E/DX2                !
 ! D43   D(24,19,20,23)        120.9811         estimate D2E/DX2                !
 ! D44   D(15,19,24,25)       -178.832          estimate D2E/DX2                !
 ! D45   D(15,19,24,26)          2.2133         estimate D2E/DX2                !
 ! D46   D(20,19,24,25)          0.5259         estimate D2E/DX2                !
 ! D47   D(20,19,24,26)       -178.4289         estimate D2E/DX2                !
 ! D48   D(19,24,26,1)        -103.3612         estimate D2E/DX2                !
 ! D49   D(19,24,26,27)         20.436          estimate D2E/DX2                !
 ! D50   D(19,24,26,28)        135.8154         estimate D2E/DX2                !
 ! D51   D(25,24,26,1)          77.6444         estimate D2E/DX2                !
 ! D52   D(25,24,26,27)       -158.5583         estimate D2E/DX2                !
 ! D53   D(25,24,26,28)        -43.179          estimate D2E/DX2                !
 --------------------------------------------------------------------------------
 Trust Radius=3.00D-01 FncErr=1.00D-07 GrdErr=1.00D-07 EigMax=2.50D+02 EigMin=1.00D-04
 Number of steps in this run=    138 maximum allowed number of steps=    168.
 GradGradGradGradGradGradGradGradGradGradGradGradGradGradGradGradGradGrad

 Leave Link  103 at Fri Sep 17 15:33:25 2021, MaxMem=   524288000 cpu:               0.1 elap:               0.1
 (Enter /opt/gaussian/g16_legacy/l202.exe)
                          Input orientation:                          
 ---------------------------------------------------------------------
 Center     Atomic      Atomic             Coordinates (Angstroms)
 Number     Number       Type             X           Y           Z
 ---------------------------------------------------------------------
      1          6           0        0.981400    0.658900    0.273200
      2          1           0        1.183300    1.738300    0.253900
      3          1           0        0.474300    0.484900    1.229800
      4          6           0        2.297000   -0.090300    0.223700
      5          6           0        3.357300    0.537900   -0.644000
      6          1           0        3.587500    1.548300   -0.290500
      7          1           0        3.014900    0.601100   -1.681600
      8          1           0        4.290700   -0.035000   -0.638700
      9          6           0        2.553400   -1.223700    0.906400
     10          1           0        3.542500   -1.672500    0.819200
     11          6           0        1.615600   -1.988800    1.785900
     12          1           0        1.960100   -1.944800    2.823500
     13          1           0        0.586800   -1.624100    1.747500
     14          1           0        1.600600   -3.038800    1.476200
     15          6           0       -2.711200   -0.793400    0.116500
     16          1           0       -3.365700   -1.340700   -0.569500
     17          1           0       -1.805000   -1.385600    0.262100
     18          1           0       -3.208100   -0.730900    1.090700
     19          6           0       -2.444000    0.587700   -0.415600
     20          6           0       -3.655300    1.482500   -0.452700
     21          1           0       -3.426300    2.476600   -0.851000
     22          1           0       -4.061300    1.613900    0.555600
     23          1           0       -4.431900    1.041800   -1.086500
     24          6           0       -1.242700    1.040400   -0.824900
     25          1           0       -1.167600    2.070200   -1.174400
     26          6           0        0.054300    0.278300   -0.885600
     27          1           0       -0.115400   -0.803400   -0.898000
     28          1           0        0.534800    0.511400   -1.844200
 ---------------------------------------------------------------------
                    Distance matrix (angstroms):
                    1          2          3          4          5
     1  C    0.000000
     2  H    1.098290   0.000000
     3  H    1.096590   1.739561   0.000000
     4  C    1.514779   2.141265   2.159937   0.000000
     5  C    2.549666   2.640731   3.438841   1.507241   0.000000
     6  H    2.810791   2.472377   3.624106   2.148209   1.094926
     7  H    2.821295   2.897265   3.865799   2.150252   1.094461
     8  H    3.502074   3.687447   4.280946   2.172932   1.095207
     9  C    2.533043   3.328119   2.710454   1.347745   2.480570
    10  H    3.506105   4.185564   3.773171   2.099821   2.657277
    11  C    3.114609   4.052799   2.780468   2.551289   3.914351
    12  H    3.773743   4.557575   3.263575   3.211173   4.487708
    13  H    2.746153   3.727249   2.174523   2.756682   4.250787
    14  H    3.937461   4.948620   3.707523   3.278320   4.513760
    15  C    3.971023   4.647097   3.608448   5.058449   6.259186
    16  H    4.858582   5.554424   4.616914   5.853105   6.980932
    17  H    3.456028   4.323049   3.103292   4.301823   5.583029
    18  H    4.489071   5.107013   3.880411   5.609651   6.908221
    19  C    3.494693   3.863860   3.351773   4.831715   5.806008
    20  C    4.764896   4.896608   4.569421   6.193633   7.078518
    21  H    4.898538   4.797322   4.848843   6.363970   7.058232
    22  H    5.140097   5.254743   4.722378   6.591087   7.591603
    23  H    5.594570   5.814831   5.454006   6.948120   7.818015
    24  C    2.509579   2.745241   2.734678   3.861026   4.630900
    25  H    2.950511   2.770727   3.314995   4.315773   4.806661
    26  C    1.532054   2.169032   2.166564   2.529054   3.321983
    27  H    2.170945   3.077943   2.556364   2.754341   3.731387
    28  H    2.169007   2.515524   3.074709   2.782733   3.067196
                    6          7          8          9         10
     6  H    0.000000
     7  H    1.777700   0.000000
     8  H    1.767080   1.766332   0.000000
     9  C    3.191538   3.200097   2.611236   0.000000
    10  H    3.406906   3.420763   2.316610   1.089653   0.000000
    11  C    4.550923   4.548536   4.105141   1.496117   2.178875
    12  H    4.954511   5.281111   4.589756   2.132431   2.568142
    13  H    4.818897   4.754567   4.683809   2.176071   3.098426
    14  H    5.301932   5.022033   4.553269   2.127695   2.463615
    15  C    6.732223   6.161657   7.083227   5.340891   6.354161
    16  H    7.534663   6.761613   7.767245   6.101452   7.054205
    17  H    6.163781   5.563846   6.308179   4.408740   5.384090
    18  H    7.299496   6.941585   7.727037   5.785473   6.821358
    19  C    6.108796   5.603796   6.767105   5.477487   6.517010
    20  C    7.244915   6.839490   8.091744   6.907867   7.961161
    21  H    7.097133   6.759915   8.118208   7.248275   8.280626
    22  H    7.695735   7.490223   8.596577   7.206198   8.287803
    23  H    8.074710   7.483528   8.800214   7.609110   8.636560
    24  C    4.886141   4.365098   5.640006   4.746991   5.741170
    25  H    4.864631   4.461929   5.874681   5.387518   6.337767
    26  C    3.801387   3.082688   4.255138   3.422392   4.345055
    27  H    4.428433   3.519294   4.480111   3.248847   4.133321
    28  H    3.578844   2.487043   3.982282   3.827678   4.572677
                   11         12         13         14         15
    11  C    0.000000
    12  H    1.094180   0.000000
    13  H    1.092204   1.773859   0.000000
    14  H    1.094824   1.772369   1.761468   0.000000
    15  C    4.789267   5.520382   3.771873   5.047992   0.000000
    16  H    5.548089   6.343621   4.590323   5.633167   1.094762
    17  H    3.792930   4.587968   2.825598   3.975578   1.092291
    18  H    5.033259   5.584482   3.953537   5.347767   1.095391
    19  C    5.288223   6.025066   4.330913   5.752321   1.503983
    20  C    6.696539   7.349326   5.699759   7.196339   2.528840
    21  H    7.232828   7.878073   6.298644   7.816983   3.484297
    22  H    6.835223   7.352889   5.788791   7.385948   2.794758
    23  H    7.348978   8.066322   6.350270   7.720737   2.788544
    24  C    4.915507   5.699138   4.130844   5.478986   2.530919
    25  H    5.743262   6.471935   5.026258   6.386744   3.499904
    26  C    3.835924   4.725640   3.291792   4.355720   3.130613
    27  H    3.406590   4.411355   2.857500   3.684901   2.787021
    28  H    4.538365   5.463682   4.178920   4.976435   4.010407
                   16         17         18         19         20
    16  H    0.000000
    17  H    1.768999   0.000000
    18  H    1.775657   1.756104   0.000000
    19  C    2.142882   2.182089   2.142777   0.000000
    20  C    2.840417   3.487198   2.735180   1.506417   0.000000
    21  H    3.828145   4.334074   3.755778   2.173115   1.095134
    22  H    3.237186   3.764842   2.551934   2.147551   1.094884
    23  H    2.660898   3.822512   3.062736   2.146639   1.095001
    24  C    3.200312   2.717209   3.266470   1.347437   2.480851
    25  H    4.102656   3.796362   4.140106   2.098280   2.656105
    26  C    3.797036   2.746411   3.945567   2.560885   3.924109
    27  H    3.310748   2.130619   3.677632   2.755040   4.237278
    28  H    4.502114   3.675564   4.915918   3.304538   4.520647
                   21         22         23         24         25
    21  H    0.000000
    22  H    1.768050   0.000000
    23  H    1.767864   1.777958   0.000000
    24  C    2.613706   3.190484   3.199911   0.000000
    25  H    2.317644   3.402148   3.423593   1.090082   0.000000
    26  C    4.116831   4.560597   4.555138   1.505553   2.188002
    27  H    4.660758   4.850404   4.698134   2.162348   3.072637
    28  H    4.531972   5.300819   5.052083   2.116204   2.403467
                   26         27         28
    26  C    0.000000
    27  H    1.095001   0.000000
    28  H    1.097328   1.745495   0.000000
 Stoichiometry    C10H18
 Framework group  C1[X(C10H18)]
 Deg. of freedom    78
 Full point group                 C1      NOp   1
 Largest Abelian subgroup         C1      NOp   1
 Largest concise Abelian subgroup C1      NOp   1
                         Standard orientation:                         
 ---------------------------------------------------------------------
 Center     Atomic      Atomic             Coordinates (Angstroms)
 Number     Number       Type             X           Y           Z
 ---------------------------------------------------------------------
      1          6           0       -0.793830   -0.586473    0.589201
      2          1           0       -0.745971   -1.484259    1.220018
      3          1           0       -0.484594    0.235357    1.246072
      4          6           0       -2.220906   -0.386920    0.122097
      5          6           0       -2.975614   -1.655037   -0.184612
      6          1           0       -3.025264   -2.291726    0.704783
      7          1           0       -2.478719   -2.212180   -0.984944
      8          1           0       -4.003239   -1.458194   -0.508214
      9          6           0       -2.820209    0.813890   -0.001630
     10          1           0       -3.860346    0.846711   -0.324712
     11          6           0       -2.215703    2.161876    0.234741
     12          1           0       -2.690825    2.635740    1.099000
     13          1           0       -1.137469    2.131948    0.406283
     14          1           0       -2.388718    2.797181   -0.639954
     15          6           0        2.465992    1.425974   -0.456093
     16          1           0        3.076390    1.626084   -1.342589
     17          1           0        1.439633    1.726002   -0.678960
     18          1           0        2.815306    2.072762    0.356020
     19          6           0        2.593423   -0.018255   -0.056185
     20          6           0        3.965048   -0.407939    0.429700
     21          1           0        4.023678   -1.466074    0.705801
     22          1           0        4.237019    0.181201    1.311582
     23          1           0        4.709108   -0.227449   -0.353132
     24          6           0        1.596328   -0.923620   -0.097429
     25          1           0        1.804033   -1.940169    0.236884
     26          6           0        0.185966   -0.715635   -0.581485
     27          1           0        0.111230    0.157045   -1.238653
     28          1           0       -0.084217   -1.577149   -1.205123
 ---------------------------------------------------------------------
 Rotational constants (GHZ):           2.2180786           0.5802366           0.4854263
 Leave Link  202 at Fri Sep 17 15:33:25 2021, MaxMem=   524288000 cpu:               0.1 elap:               0.1
 (Enter /opt/gaussian/g16_legacy/l301.exe)
 Standard basis: 6-31G(d,p) (6D, 7F)
 Ernie: Thresh=  0.10000D-02 Tol=  0.10000D-05 Strict=F.
 There are   240 symmetry adapted cartesian basis functions of A   symmetry.
 There are   240 symmetry adapted basis functions of A   symmetry.
   240 basis functions,   406 primitive gaussians,   240 cartesian basis functions
    39 alpha electrons       39 beta electrons
       nuclear repulsion energy       516.4355454796 Hartrees.
 IExCor=    0 DFT=F Ex=HF Corr=None ExCW=0 ScaHFX=  1.000000
 ScaDFX=  1.000000  1.000000  1.000000  1.000000 ScalE2=  1.000000  1.000000
 IRadAn=      5 IRanWt=     -1 IRanGd=            0 ICorTp=0 IEmpDi=  4
 NAtoms=   28 NActive=   28 NUniq=   28 SFac= 1.00D+00 NAtFMM=   60 NAOKFM=F Big=F
 Integral buffers will be    131072 words long.
 Raffenetti 1 integral format.
 Two-electron integral symmetry is turned on.
 Leave Link  301 at Fri Sep 17 15:33:26 2021, MaxMem=   524288000 cpu:               0.1 elap:               0.2
 (Enter /opt/gaussian/g16_legacy/l302.exe)
 NPDir=0 NMtPBC=     1 NCelOv=     1 NCel=       1 NClECP=     1 NCelD=      1
         NCelK=      1 NCelE2=     1 NClLst=     1 CellRange=     0.0.
 One-electron integrals computed using PRISM.
 One-electron integral symmetry used in STVInt
 NBasis=   240 RedAO= T EigKep=  2.10D-03  NBF=   240
 NBsUse=   240 1.00D-06 EigRej= -1.00D+00 NBFU=   240
 Leave Link  302 at Fri Sep 17 15:33:26 2021, MaxMem=   524288000 cpu:               0.4 elap:               0.6
 (Enter /opt/gaussian/g16_legacy/l303.exe)
 DipDrv:  MaxL=1.
 Leave Link  303 at Fri Sep 17 15:33:27 2021, MaxMem=   524288000 cpu:               0.1 elap:               0.1
 (Enter /opt/gaussian/g16_legacy/l401.exe)
 ExpMin= 1.61D-01 ExpMax= 3.05D+03 ExpMxC= 4.57D+02 IAcc=3 IRadAn=         5 AccDes= 0.00D+00
 Harris functional with IExCor=  205 and IRadAn=       5 diagonalized for initial guess.
 HarFok:  IExCor=  205 AccDes= 0.00D+00 IRadAn=         5 IDoV= 1 UseB2=F ITyADJ=14
 ICtDFT=  3500011 ScaDFX=  1.000000  1.000000  1.000000  1.000000
 FoFCou: FMM=F IPFlag=           0 FMFlag=      100000 FMFlg1=           0
         NFxFlg=           0 DoJE=T BraDBF=F KetDBF=T FulRan=T
         wScrn=  0.000000 ICntrl=       500 IOpCl=  0 I1Cent=   200000004 NGrid=           0
         NMat0=    1 NMatS0=      1 NMatT0=    0 NMatD0=    1 NMtDS0=    0 NMtDT0=    0
 Petite list used in FoFCou.
 Harris En= -390.109904334032    
 JPrj=0 DoOrth=F DoCkMO=F.
 Leave Link  401 at Fri Sep 17 15:33:39 2021, MaxMem=   524288000 cpu:              12.2 elap:              12.4
 (Enter /opt/gaussian/g16_legacy/l502.exe)
 Keep R1 ints in memory in canonical form, NReq=425198025.
 FoFCou: FMM=F IPFlag=           0 FMFlag=           0 FMFlg1=           0
         NFxFlg=           0 DoJE=F BraDBF=F KetDBF=F FulRan=T
         wScrn=  0.000000 ICntrl=       600 IOpCl=  0 I1Cent=           0 NGrid=           0
         NMat0=    1 NMatS0=  28920 NMatT0=    0 NMatD0=    1 NMtDS0=    0 NMtDT0=    0
 Symmetry not used in FoFCou.
 Two-electron integral symmetry not used.
 Closed shell SCF:
 Using DIIS extrapolation, IDIIS=  1040.
 NGot=   524288000 LenX=   105970886 LenY=   105912845
 Requested convergence on RMS density matrix=1.00D-08 within 128 cycles.
 Requested convergence on MAX density matrix=1.00D-06.
 Requested convergence on             energy=1.00D-06.
 No special actions if energy rises.

 Cycle   1  Pass 1  IDiag  1:
 E= -388.533189722134    
 DIIS: error= 5.21D-02 at cycle   1 NSaved=   1.
 NSaved= 1 IEnMin= 1 EnMin= -388.533189722134     IErMin= 1 ErrMin= 5.21D-02
 ErrMax= 5.21D-02  0.00D+00 EMaxC= 1.00D-01 BMatC= 8.07D-01 BMatP= 8.07D-01
 IDIUse=3 WtCom= 4.79D-01 WtEn= 5.21D-01
 Coeff-Com:  0.100D+01
 Coeff-En:   0.100D+01
 Coeff:      0.100D+01
 Gap=     0.508 Goal=   None    Shift=    0.000
 GapD=    0.508 DampG=2.000 DampE=0.500 DampFc=1.0000 IDamp=-1.
 RMSDP=4.00D-03 MaxDP=1.14D-01              OVMax= 1.33D-01

 Cycle   2  Pass 1  IDiag  1:
 E= -389.073883248643     Delta-E=       -0.540693526509 Rises=F Damp=F
 DIIS: error= 1.59D-02 at cycle   2 NSaved=   2.
 NSaved= 2 IEnMin= 2 EnMin= -389.073883248643     IErMin= 2 ErrMin= 1.59D-02
 ErrMax= 1.59D-02  0.00D+00 EMaxC= 1.00D-01 BMatC= 8.66D-02 BMatP= 8.07D-01
 IDIUse=3 WtCom= 8.41D-01 WtEn= 1.59D-01
 Coeff-Com:  0.183D+00 0.817D+00
 Coeff-En:   0.000D+00 0.100D+01
 Coeff:      0.154D+00 0.846D+00
 Gap=     0.549 Goal=   None    Shift=    0.000
 RMSDP=1.63D-03 MaxDP=3.04D-02 DE=-5.41D-01 OVMax= 4.61D-02

 Cycle   3  Pass 1  IDiag  1:
 E= -389.151439154975     Delta-E=       -0.077555906332 Rises=F Damp=F
 DIIS: error= 3.43D-03 at cycle   3 NSaved=   3.
 NSaved= 3 IEnMin= 3 EnMin= -389.151439154975     IErMin= 3 ErrMin= 3.43D-03
 ErrMax= 3.43D-03  0.00D+00 EMaxC= 1.00D-01 BMatC= 3.14D-03 BMatP= 8.66D-02
 IDIUse=3 WtCom= 9.66D-01 WtEn= 3.43D-02
 Coeff-Com: -0.245D-01 0.106D+00 0.919D+00
 Coeff-En:   0.000D+00 0.000D+00 0.100D+01
 Coeff:     -0.236D-01 0.102D+00 0.921D+00
 Gap=     0.499 Goal=   None    Shift=    0.000
 RMSDP=2.59D-04 MaxDP=7.14D-03 DE=-7.76D-02 OVMax= 1.01D-02

 Cycle   4  Pass 1  IDiag  1:
 E= -389.155064790613     Delta-E=       -0.003625635638 Rises=F Damp=F
 DIIS: error= 5.31D-04 at cycle   4 NSaved=   4.
 NSaved= 4 IEnMin= 4 EnMin= -389.155064790613     IErMin= 4 ErrMin= 5.31D-04
 ErrMax= 5.31D-04  0.00D+00 EMaxC= 1.00D-01 BMatC= 9.29D-05 BMatP= 3.14D-03
 IDIUse=3 WtCom= 9.95D-01 WtEn= 5.31D-03
 Coeff-Com: -0.424D-02-0.189D-02 0.950D-01 0.911D+00
 Coeff-En:   0.000D+00 0.000D+00 0.000D+00 0.100D+01
 Coeff:     -0.422D-02-0.188D-02 0.945D-01 0.912D+00
 Gap=     0.499 Goal=   None    Shift=    0.000
 RMSDP=7.39D-05 MaxDP=1.49D-03 DE=-3.63D-03 OVMax= 3.14D-03

 Cycle   5  Pass 1  IDiag  1:
 E= -389.155189134857     Delta-E=       -0.000124344244 Rises=F Damp=F
 DIIS: error= 1.63D-04 at cycle   5 NSaved=   5.
 NSaved= 5 IEnMin= 5 EnMin= -389.155189134857     IErMin= 5 ErrMin= 1.63D-04
 ErrMax= 1.63D-04  0.00D+00 EMaxC= 1.00D-01 BMatC= 1.60D-05 BMatP= 9.29D-05
 IDIUse=3 WtCom= 9.98D-01 WtEn= 1.63D-03
 Coeff-Com:  0.241D-02-0.152D-01-0.102D+00 0.176D+00 0.939D+00
 Coeff-En:   0.000D+00 0.000D+00 0.000D+00 0.000D+00 0.100D+01
 Coeff:      0.241D-02-0.152D-01-0.102D+00 0.175D+00 0.939D+00
 Gap=     0.500 Goal=   None    Shift=    0.000
 RMSDP=3.00D-05 MaxDP=6.56D-04 DE=-1.24D-04 OVMax= 9.24D-04

 Cycle   6  Pass 1  IDiag  1:
 E= -389.155210622711     Delta-E=       -0.000021487854 Rises=F Damp=F
 DIIS: error= 3.58D-05 at cycle   6 NSaved=   6.
 NSaved= 6 IEnMin= 6 EnMin= -389.155210622711     IErMin= 6 ErrMin= 3.58D-05
 ErrMax= 3.58D-05  0.00D+00 EMaxC= 1.00D-01 BMatC= 5.50D-07 BMatP= 1.60D-05
 IDIUse=1 WtCom= 1.00D+00 WtEn= 0.00D+00
 Coeff-Com:  0.720D-03-0.335D-02-0.261D-01-0.433D-02 0.177D+00 0.856D+00
 Coeff:      0.720D-03-0.335D-02-0.261D-01-0.433D-02 0.177D+00 0.856D+00
 Gap=     0.500 Goal=   None    Shift=    0.000
 RMSDP=5.30D-06 MaxDP=1.61D-04 DE=-2.15D-05 OVMax= 3.23D-04

 Cycle   7  Pass 1  IDiag  1:
 E= -389.155211463889     Delta-E=       -0.000000841178 Rises=F Damp=F
 DIIS: error= 1.03D-05 at cycle   7 NSaved=   7.
 NSaved= 7 IEnMin= 7 EnMin= -389.155211463889     IErMin= 7 ErrMin= 1.03D-05
 ErrMax= 1.03D-05  0.00D+00 EMaxC= 1.00D-01 BMatC= 5.44D-08 BMatP= 5.50D-07
 IDIUse=1 WtCom= 1.00D+00 WtEn= 0.00D+00
 Coeff-Com: -0.494D-04 0.464D-03 0.301D-02-0.105D-01-0.468D-01 0.145D+00
 Coeff-Com:  0.909D+00
 Coeff:     -0.494D-04 0.464D-03 0.301D-02-0.105D-01-0.468D-01 0.145D+00
 Coeff:      0.909D+00
 Gap=     0.500 Goal=   None    Shift=    0.000
 RMSDP=1.71D-06 MaxDP=4.10D-05 DE=-8.41D-07 OVMax= 8.42D-05

 Cycle   8  Pass 1  IDiag  1:
 E= -389.155211552876     Delta-E=       -0.000000088987 Rises=F Damp=F
 DIIS: error= 3.51D-06 at cycle   8 NSaved=   8.
 NSaved= 8 IEnMin= 8 EnMin= -389.155211552876     IErMin= 8 ErrMin= 3.51D-06
 ErrMax= 3.51D-06  0.00D+00 EMaxC= 1.00D-01 BMatC= 5.10D-09 BMatP= 5.44D-08
 IDIUse=1 WtCom= 1.00D+00 WtEn= 0.00D+00
 Coeff-Com: -0.581D-04 0.249D-03 0.208D-02 0.315D-02-0.171D-01-0.804D-01
 Coeff-Com: -0.123D+00 0.121D+01
 Coeff:     -0.581D-04 0.249D-03 0.208D-02 0.315D-02-0.171D-01-0.804D-01
 Coeff:     -0.123D+00 0.121D+01
 Gap=     0.500 Goal=   None    Shift=    0.000
 RMSDP=7.86D-07 MaxDP=2.41D-05 DE=-8.90D-08 OVMax= 5.81D-05

 Cycle   9  Pass 1  IDiag  1:
 E= -389.155211568755     Delta-E=       -0.000000015879 Rises=F Damp=F
 DIIS: error= 1.46D-06 at cycle   9 NSaved=   9.
 NSaved= 9 IEnMin= 9 EnMin= -389.155211568755     IErMin= 9 ErrMin= 1.46D-06
 ErrMax= 1.46D-06  0.00D+00 EMaxC= 1.00D-01 BMatC= 7.39D-10 BMatP= 5.10D-09
 IDIUse=1 WtCom= 1.00D+00 WtEn= 0.00D+00
 Coeff-Com:  0.930D-05-0.691D-04-0.481D-03 0.144D-02 0.386D-02 0.109D-03
 Coeff-Com: -0.865D-01-0.120D+00 0.120D+01
 Coeff:      0.930D-05-0.691D-04-0.481D-03 0.144D-02 0.386D-02 0.109D-03
 Coeff:     -0.865D-01-0.120D+00 0.120D+01
 Gap=     0.500 Goal=   None    Shift=    0.000
 RMSDP=2.99D-07 MaxDP=1.24D-05 DE=-1.59D-08 OVMax= 2.71D-05

 Cycle  10  Pass 1  IDiag  1:
 E= -389.155211571178     Delta-E=       -0.000000002424 Rises=F Damp=F
 DIIS: error= 3.97D-07 at cycle  10 NSaved=  10.
 NSaved=10 IEnMin=10 EnMin= -389.155211571178     IErMin=10 ErrMin= 3.97D-07
 ErrMax= 3.97D-07  0.00D+00 EMaxC= 1.00D-01 BMatC= 1.21D-10 BMatP= 7.39D-10
 IDIUse=1 WtCom= 1.00D+00 WtEn= 0.00D+00
 Coeff-Com:  0.952D-05-0.464D-04-0.369D-03-0.135D-03 0.233D-02 0.142D-01
 Coeff-Com:  0.596D-02-0.211D+00 0.143D+00 0.105D+01
 Coeff:      0.952D-05-0.464D-04-0.369D-03-0.135D-03 0.233D-02 0.142D-01
 Coeff:      0.596D-02-0.211D+00 0.143D+00 0.105D+01
 Gap=     0.500 Goal=   None    Shift=    0.000
 RMSDP=1.24D-07 MaxDP=3.07D-06 DE=-2.42D-09 OVMax= 9.88D-06

 Cycle  11  Pass 1  IDiag  1:
 E= -389.155211571495     Delta-E=       -0.000000000317 Rises=F Damp=F
 DIIS: error= 1.55D-07 at cycle  11 NSaved=  11.
 NSaved=11 IEnMin=11 EnMin= -389.155211571495     IErMin=11 ErrMin= 1.55D-07
 ErrMax= 1.55D-07  0.00D+00 EMaxC= 1.00D-01 BMatC= 9.54D-12 BMatP= 1.21D-10
 IDIUse=1 WtCom= 1.00D+00 WtEn= 0.00D+00
 Coeff-Com:  0.394D-06 0.841D-06 0.103D-05-0.149D-03-0.305D-03 0.277D-02
 Coeff-Com:  0.110D-01-0.153D-01-0.107D+00 0.164D+00 0.945D+00
 Coeff:      0.394D-06 0.841D-06 0.103D-05-0.149D-03-0.305D-03 0.277D-02
 Coeff:      0.110D-01-0.153D-01-0.107D+00 0.164D+00 0.945D+00
 Gap=     0.500 Goal=   None    Shift=    0.000
 RMSDP=2.76D-08 MaxDP=1.16D-06 DE=-3.17D-10 OVMax= 2.51D-06

 Cycle  12  Pass 1  IDiag  1:
 E= -389.155211571519     Delta-E=       -0.000000000023 Rises=F Damp=F
 DIIS: error= 3.63D-08 at cycle  12 NSaved=  12.
 NSaved=12 IEnMin=12 EnMin= -389.155211571519     IErMin=12 ErrMin= 3.63D-08
 ErrMax= 3.63D-08  0.00D+00 EMaxC= 1.00D-01 BMatC= 1.17D-12 BMatP= 9.54D-12
 IDIUse=1 WtCom= 1.00D+00 WtEn= 0.00D+00
 Coeff-Com: -0.102D-05 0.547D-05 0.429D-04 0.324D-05-0.342D-03-0.126D-02
 Coeff-Com:  0.366D-03 0.217D-01-0.322D-01-0.113D+00 0.984D-01 0.103D+01
 Coeff:     -0.102D-05 0.547D-05 0.429D-04 0.324D-05-0.342D-03-0.126D-02
 Coeff:      0.366D-03 0.217D-01-0.322D-01-0.113D+00 0.984D-01 0.103D+01
 Gap=     0.500 Goal=   None    Shift=    0.000
 RMSDP=1.18D-08 MaxDP=3.33D-07 DE=-2.34D-11 OVMax= 8.46D-07

 Cycle  13  Pass 1  IDiag  1:
 E= -389.155211571513     Delta-E=        0.000000000005 Rises=F Damp=F
 DIIS: error= 1.06D-08 at cycle  13 NSaved=  13.
 NSaved=13 IEnMin=12 EnMin= -389.155211571519     IErMin=13 ErrMin= 1.06D-08
 ErrMax= 1.06D-08  0.00D+00 EMaxC= 1.00D-01 BMatC= 5.47D-14 BMatP= 1.17D-12
 IDIUse=1 WtCom= 1.00D+00 WtEn= 0.00D+00
 Coeff-Com: -0.122D-06 0.462D-06 0.389D-05 0.136D-04-0.170D-04-0.298D-03
 Coeff-Com: -0.848D-03 0.352D-02 0.515D-02-0.213D-01-0.612D-01 0.111D+00
 Coeff-Com:  0.964D+00
 Coeff:     -0.122D-06 0.462D-06 0.389D-05 0.136D-04-0.170D-04-0.298D-03
 Coeff:     -0.848D-03 0.352D-02 0.515D-02-0.213D-01-0.612D-01 0.111D+00
 Coeff:      0.964D+00
 Gap=     0.500 Goal=   None    Shift=    0.000
 RMSDP=2.12D-09 MaxDP=7.02D-08 DE= 5.34D-12 OVMax= 1.05D-07

 SCF Done:  E(RHF) =  -389.155211572     A.U. after   13 cycles
            NFock= 13  Conv=0.21D-08     -V/T= 2.0014
 KE= 3.886260923798D+02 PE=-1.937505069287D+03 EE= 6.432882198562D+02
 Leave Link  502 at Fri Sep 17 15:34:09 2021, MaxMem=   524288000 cpu:              29.4 elap:              30.0
 (Enter /opt/gaussian/g16_legacy/l801.exe)
 ExpMin= 1.61D-01 ExpMax= 3.05D+03 ExpMxC= 4.57D+02 IAcc=3 IRadAn=         5 AccDes= 0.00D+00
 HarFok:  IExCor=  205 AccDes= 0.00D+00 IRadAn=         5 IDoV=-2 UseB2=F ITyADJ=14
 ICtDFT= 12500011 ScaDFX=  1.000000  1.000000  1.000000  1.000000
 Largest valence mixing into a core orbital is  1.98D-04
 Largest core mixing into a valence orbital is  3.52D-05
 Range of M.O.s used for correlation:    11   240
 NBasis=   240 NAE=    39 NBE=    39 NFC=    10 NFV=     0
 NROrb=    230 NOA=    29 NOB=    29 NVA=   201 NVB=   201
 Leave Link  801 at Fri Sep 17 15:34:11 2021, MaxMem=   524288000 cpu:               1.6 elap:               1.9
 (Enter /opt/gaussian/g16_legacy/l906.exe)
 Frozen-core derivative calculation, NFC=  10 NFV=   0.
 FulOut=F Deriv=T AODrv=T NAtomX=    28
   MMem=          88  MDisk=          29 MDiskD=          29
  W3Min=     2246400 MinDsk=     2795480 NBas6D=         240
 NBas2D=       29244    NTT=       28920    LW2=     2040000
    MDV=   523626386 MDiskM=       30186 NBas2p=       24383
 Fully direct method using O(ONN) memory.
 IMap=   1   2   3   4   5   6   7   8   9  10  11  12  13  14  15  16  17  18  19  20
 IMap=  21  22  23  24  25  26  27  28  29  30  31  32  33  34  35  36  37  38  39
 JobTyp=1 Pass  1:  I=  11 to  39 NPSUse=  1 ParTrn=F ParDer=F DoDerP=T.
 Spin components of T(2) and E(2):
     alpha-alpha T2 =       0.5715135435D-01 E2=     -0.1638025438D+00
     alpha-beta  T2 =       0.3618136673D+00 E2=     -0.1089336232D+01
     beta-beta   T2 =       0.5715135435D-01 E2=     -0.1638025438D+00
 The integrals were generated   1 times.
 ANorm=    0.1214955298D+01
 E2 =    -0.1416941319D+01 EUMP2 =    -0.39057215289101D+03
 Leave Link  906 at Fri Sep 17 15:38:38 2021, MaxMem=   524288000 cpu:             266.5 elap:             266.9
 (Enter /opt/gaussian/g16_legacy/l1002.exe)
 Minotr:  Closed shell wavefunction.
          Computing MP2/KS-MP2 derivatives.
          Using Z-Vector for PSCF gradient.
          Skipping F1 and S1 gradient terms here.
          IDoAtm=1111111111111111111111111111
          Frozen-core window.
          Direct CPHF calculation.
          Differentiating once with respect to electric field.
                with respect to dipole field.
          Differentiating once with respect to nuclear coordinates.
          Requested convergence is 1.0D-10 RMS, and 1.0D-09 maximum.
          NewPWx=F KeepS1=T KeepF1=T KeepIn=T MapXYZ=F SortEE=F KeepMc=T.
 Keep R1 ints in memory in canonical form, NReq=425201067.
 FoFCou: FMM=F IPFlag=           0 FMFlag=           0 FMFlg1=           0
         NFxFlg=           0 DoJE=F BraDBF=F KetDBF=F FulRan=T
         wScrn=  0.000000 ICntrl=       600 IOpCl=  0 I1Cent=           0 NGrid=           0
         NMat0=    1 NMatS0=  28920 NMatT0=    0 NMatD0=    1 NMtDS0=    0 NMtDT0=    0
 Symmetry not used in FoFCou.
 Two-electron integral symmetry not used.
          MDV=     524288000 using IRadAn=       5.
          Solving linear equations separately, MaxMat=       0.
          There are     1 degrees of freedom in the 1st order CPHF.  IDoFFX=0 NUNeed=     1.
 LinEq1:  Iter=  0 NonCon=     1 RMS=2.55D-03 Max=3.76D-02 NDo=     1
 AX will form     1 AO Fock derivatives at one time.
 LinEq1:  Iter=  1 NonCon=     1 RMS=6.90D-04 Max=9.74D-03 NDo=     1
 LinEq1:  Iter=  2 NonCon=     1 RMS=1.61D-04 Max=4.14D-03 NDo=     1
 LinEq1:  Iter=  3 NonCon=     1 RMS=4.31D-05 Max=5.08D-04 NDo=     1
 LinEq1:  Iter=  4 NonCon=     1 RMS=1.99D-05 Max=8.55D-04 NDo=     1
 LinEq1:  Iter=  5 NonCon=     1 RMS=5.06D-06 Max=8.27D-05 NDo=     1
 LinEq1:  Iter=  6 NonCon=     1 RMS=1.63D-06 Max=2.68D-05 NDo=     1
 LinEq1:  Iter=  7 NonCon=     1 RMS=4.13D-07 Max=4.19D-06 NDo=     1
 LinEq1:  Iter=  8 NonCon=     1 RMS=1.01D-07 Max=1.86D-06 NDo=     1
 LinEq1:  Iter=  9 NonCon=     1 RMS=2.33D-08 Max=6.32D-07 NDo=     1
 LinEq1:  Iter= 10 NonCon=     1 RMS=6.42D-09 Max=1.62D-07 NDo=     1
 LinEq1:  Iter= 11 NonCon=     1 RMS=1.89D-09 Max=3.64D-08 NDo=     1
 LinEq1:  Iter= 12 NonCon=     1 RMS=4.21D-10 Max=8.62D-09 NDo=     1
 LinEq1:  Iter= 13 NonCon=     1 RMS=1.13D-10 Max=1.03D-09 NDo=     1
 LinEq1:  Iter= 14 NonCon=     1 RMS=4.85D-11 Max=1.81D-09 NDo=     1
 LinEq1:  Iter= 15 NonCon=     0 RMS=1.45D-11 Max=1.97D-10 NDo=     1
 Linear equations converged to 1.000D-10 1.000D-09 after    15 iterations.
 End of Minotr F.D. properties file   721 does not exist.
 End of Minotr F.D. properties file   722 does not exist.
 End of Minotr F.D. properties file   788 does not exist.
 Leave Link 1002 at Fri Sep 17 15:39:22 2021, MaxMem=   524288000 cpu:              43.6 elap:              43.9
 (Enter /opt/gaussian/g16_legacy/l601.exe)
 Copying SCF densities to generalized density rwf, IOpCl= 0 IROHF=0.

 **********************************************************************

            Population analysis using the SCF density.

 **********************************************************************

 Orbital symmetries:
       Occupied  (A) (A) (A) (A) (A) (A) (A) (A) (A) (A) (A) (A)
                 (A) (A) (A) (A) (A) (A) (A) (A) (A) (A) (A) (A)
                 (A) (A) (A) (A) (A) (A) (A) (A) (A) (A) (A) (A)
                 (A) (A) (A)
       Virtual   (A) (A) (A) (A) (A) (A) (A) (A) (A) (A) (A) (A)
                 (A) (A) (A) (A) (A) (A) (A) (A) (A) (A) (A) (A)
                 (A) (A) (A) (A) (A) (A) (A) (A) (A) (A) (A) (A)
                 (A) (A) (A) (A) (A) (A) (A) (A) (A) (A) (A) (A)
                 (A) (A) (A) (A) (A) (A) (A) (A) (A) (A) (A) (A)
                 (A) (A) (A) (A) (A) (A) (A) (A) (A) (A) (A) (A)
                 (A) (A) (A) (A) (A) (A) (A) (A) (A) (A) (A) (A)
                 (A) (A) (A) (A) (A) (A) (A) (A) (A) (A) (A) (A)
                 (A) (A) (A) (A) (A) (A) (A) (A) (A) (A) (A) (A)
                 (A) (A) (A) (A) (A) (A) (A) (A) (A) (A) (A) (A)
                 (A) (A) (A) (A) (A) (A) (A) (A) (A) (A) (A) (A)
                 (A) (A) (A) (A) (A) (A) (A) (A) (A) (A) (A) (A)
                 (A) (A) (A) (A) (A) (A) (A) (A) (A) (A) (A) (A)
                 (A) (A) (A) (A) (A) (A) (A) (A) (A) (A) (A) (A)
                 (A) (A) (A) (A) (A) (A) (A) (A) (A) (A) (A) (A)
                 (A) (A) (A) (A) (A) (A) (A) (A) (A) (A) (A) (A)
                 (A) (A) (A) (A) (A) (A) (A) (A) (A)
 The electronic state is 1-A.
 Alpha  occ. eigenvalues --  -11.23061 -11.22504 -11.22000 -11.21920 -11.21883
 Alpha  occ. eigenvalues --  -11.21650 -11.21553 -11.21484 -11.21456 -11.21438
 Alpha  occ. eigenvalues --   -1.10623  -1.08327  -1.01911  -0.98012  -0.93647
 Alpha  occ. eigenvalues --   -0.91775  -0.86755  -0.82686  -0.70599  -0.69343
 Alpha  occ. eigenvalues --   -0.64585  -0.61545  -0.60102  -0.59031  -0.58087
 Alpha  occ. eigenvalues --   -0.56803  -0.55367  -0.55150  -0.53549  -0.51980
 Alpha  occ. eigenvalues --   -0.51714  -0.51321  -0.50591  -0.49228  -0.48276
 Alpha  occ. eigenvalues --   -0.46014  -0.44273  -0.33356  -0.31525
 Alpha virt. eigenvalues --    0.18455   0.19494   0.22038   0.24454   0.25183
 Alpha virt. eigenvalues --    0.27142   0.28394   0.28932   0.30249   0.30504
 Alpha virt. eigenvalues --    0.31238   0.32117   0.33136   0.33436   0.34031
 Alpha virt. eigenvalues --    0.35677   0.35774   0.36971   0.38998   0.40648
 Alpha virt. eigenvalues --    0.41063   0.42592   0.43321   0.44192   0.45150
 Alpha virt. eigenvalues --    0.51684   0.54046   0.61171   0.62445   0.70138
 Alpha virt. eigenvalues --    0.71102   0.71887   0.74280   0.76417   0.76615
 Alpha virt. eigenvalues --    0.76877   0.78795   0.79454   0.81139   0.82035
 Alpha virt. eigenvalues --    0.83812   0.85654   0.88078   0.91265   0.92026
 Alpha virt. eigenvalues --    0.92896   0.95178   0.97057   0.98262   0.99207
 Alpha virt. eigenvalues --    0.99750   1.00203   1.02301   1.03925   1.06182
 Alpha virt. eigenvalues --    1.07863   1.08639   1.08809   1.11200   1.12390
 Alpha virt. eigenvalues --    1.12561   1.13434   1.14583   1.14927   1.15819
 Alpha virt. eigenvalues --    1.16164   1.16403   1.18224   1.18706   1.20092
 Alpha virt. eigenvalues --    1.20660   1.22067   1.22853   1.25019   1.27541
 Alpha virt. eigenvalues --    1.34170   1.40672   1.41850   1.43739   1.45172
 Alpha virt. eigenvalues --    1.47557   1.53477   1.56257   1.56980   1.58247
 Alpha virt. eigenvalues --    1.59851   1.62719   1.65798   1.69519   1.70789
 Alpha virt. eigenvalues --    1.75332   1.82524   1.92035   1.92196   1.95498
 Alpha virt. eigenvalues --    1.98631   2.01126   2.02848   2.04184   2.08703
 Alpha virt. eigenvalues --    2.09242   2.11123   2.11379   2.13104   2.14503
 Alpha virt. eigenvalues --    2.15430   2.17689   2.19721   2.23578   2.27384
 Alpha virt. eigenvalues --    2.28340   2.29993   2.32201   2.34974   2.35567
 Alpha virt. eigenvalues --    2.35645   2.35783   2.39324   2.39852   2.40351
 Alpha virt. eigenvalues --    2.41283   2.41826   2.43037   2.45163   2.45387
 Alpha virt. eigenvalues --    2.47034   2.48343   2.49335   2.50338   2.54525
 Alpha virt. eigenvalues --    2.56588   2.57723   2.61275   2.62185   2.64354
 Alpha virt. eigenvalues --    2.66340   2.67162   2.72033   2.72993   2.73746
 Alpha virt. eigenvalues --    2.75720   2.77701   2.81090   2.82805   2.85158
 Alpha virt. eigenvalues --    2.87730   2.89152   2.91920   2.93444   2.94437
 Alpha virt. eigenvalues --    2.97094   2.99037   3.01162   3.02599   3.05098
 Alpha virt. eigenvalues --    3.05822   3.06632   3.08508   3.13019   3.15941
 Alpha virt. eigenvalues --    3.17137   3.18164   3.19615   3.20679   3.21264
 Alpha virt. eigenvalues --    3.23191   3.24414   3.26465   3.27246   3.36670
 Alpha virt. eigenvalues --    3.39075   3.44607   3.45622   3.55550   3.57292
 Alpha virt. eigenvalues --    3.58698   3.61060   3.66892   3.73955   3.78202
 Alpha virt. eigenvalues --    3.78870   3.80511   3.81325   3.82333   3.82838
 Alpha virt. eigenvalues --    3.84213   3.85750   3.87660   3.89513   3.91175
 Alpha virt. eigenvalues --    3.95901   4.59095   4.62635   4.74428   4.82816
 Alpha virt. eigenvalues --    4.88837   4.92668   4.93351   5.07550   5.10288
 Alpha virt. eigenvalues --    5.16869
          Condensed to atoms (all electrons):
               1          2          3          4          5          6
     1  C    5.001804   0.413510   0.412350   0.340289  -0.058756  -0.003553
     2  H    0.413510   0.588485  -0.030226  -0.045052  -0.004693   0.002571
     3  H    0.412350  -0.030226   0.571697  -0.040535   0.003239  -0.000016
     4  C    0.340289  -0.045052  -0.040535   4.955020   0.349338  -0.043066
     5  C   -0.058756  -0.004693   0.003239   0.349338   4.896471   0.397375
     6  H   -0.003553   0.002571  -0.000016  -0.043066   0.397375   0.593628
     7  H   -0.000531  -0.000276  -0.000030  -0.045802   0.400287  -0.035008
     8  H    0.003676   0.000081  -0.000103  -0.041410   0.406171  -0.027608
     9  C   -0.044046   0.001919  -0.002232   0.698856  -0.045932  -0.000425
    10  H    0.003079  -0.000114   0.000060  -0.036525  -0.006483   0.000248
    11  C   -0.007064   0.000138  -0.002135  -0.050689   0.003425  -0.000114
    12  H    0.000227   0.000028   0.000172  -0.001413  -0.000116   0.000021
    13  H   -0.001828   0.000004  -0.001334  -0.000418   0.000092  -0.000001
    14  H    0.000232  -0.000010  -0.000034   0.000593  -0.000100  -0.000004
    15  C    0.000597  -0.000016   0.000160  -0.000017  -0.000000  -0.000000
    16  H   -0.000041   0.000000   0.000014   0.000001  -0.000000   0.000000
    17  H   -0.000053  -0.000012  -0.000052  -0.000027  -0.000000  -0.000000
    18  H    0.000077  -0.000001  -0.000076  -0.000002   0.000000  -0.000000
    19  C   -0.003608   0.000615   0.001046   0.000006  -0.000002   0.000000
    20  C   -0.000101  -0.000000  -0.000042   0.000002  -0.000000  -0.000000
    21  H   -0.000003   0.000002  -0.000002   0.000000  -0.000000  -0.000000
    22  H    0.000022  -0.000001  -0.000005  -0.000000   0.000000  -0.000000
    23  H   -0.000004   0.000000   0.000001   0.000000  -0.000000   0.000000
    24  C   -0.063059  -0.000607  -0.000806   0.006129  -0.000158   0.000000
    25  H    0.000004   0.001003   0.000213  -0.000155   0.000010  -0.000002
    26  C    0.326244  -0.044607  -0.039855  -0.057359  -0.000187   0.000027
    27  H   -0.040295   0.004203  -0.002145  -0.001436   0.000317   0.000012
    28  H   -0.045130  -0.002603   0.004290  -0.001850  -0.000392   0.000093
               7          8          9         10         11         12
     1  C   -0.000531   0.003676  -0.044046   0.003079  -0.007064   0.000227
     2  H   -0.000276   0.000081   0.001919  -0.000114   0.000138   0.000028
     3  H   -0.000030  -0.000103  -0.002232   0.000060  -0.002135   0.000172
     4  C   -0.045802  -0.041410   0.698856  -0.036525  -0.050689  -0.001413
     5  C    0.400287   0.406171  -0.045932  -0.006483   0.003425  -0.000116
     6  H   -0.035008  -0.027608  -0.000425   0.000248  -0.000114   0.000021
     7  H    0.594738  -0.028082  -0.001035   0.000124  -0.000100  -0.000005
     8  H   -0.028082   0.571062  -0.002737   0.002222   0.000137  -0.000004
     9  C   -0.001035  -0.002737   4.939938   0.404875   0.337728  -0.044355
    10  H    0.000124   0.002222   0.404875   0.559338  -0.043637  -0.000222
    11  C   -0.000100   0.000137   0.337728  -0.043637   4.906214   0.400026
    12  H   -0.000005  -0.000004  -0.044355  -0.000222   0.400026   0.584260
    13  H    0.000000   0.000004  -0.041938   0.003315   0.408023  -0.026860
    14  H    0.000015  -0.000009  -0.042839  -0.002646   0.403005  -0.033275
    15  C   -0.000000  -0.000000   0.000010  -0.000000  -0.000097   0.000002
    16  H    0.000000   0.000000   0.000000   0.000000   0.000002   0.000000
    17  H    0.000000   0.000000  -0.000032   0.000000   0.000040  -0.000008
    18  H    0.000000  -0.000000   0.000000  -0.000000  -0.000003  -0.000000
    19  C    0.000000   0.000000   0.000001   0.000000   0.000007  -0.000000
    20  C   -0.000000   0.000000  -0.000000   0.000000  -0.000000   0.000000
    21  H   -0.000000   0.000000  -0.000000   0.000000   0.000000  -0.000000
    22  H    0.000000  -0.000000  -0.000000  -0.000000   0.000000  -0.000000
    23  H    0.000000   0.000000   0.000000   0.000000  -0.000000   0.000000
    24  C   -0.000086   0.000003   0.000070   0.000002  -0.000032   0.000002
    25  H    0.000012  -0.000000  -0.000002  -0.000000   0.000000   0.000000
    26  C    0.000810  -0.000097  -0.004368  -0.000116   0.000690  -0.000050
    27  H   -0.000009  -0.000010   0.001215  -0.000044   0.000070   0.000023
    28  H   -0.000188  -0.000025   0.000514   0.000004  -0.000030  -0.000000
              13         14         15         16         17         18
     1  C   -0.001828   0.000232   0.000597  -0.000041  -0.000053   0.000077
     2  H    0.000004  -0.000010  -0.000016   0.000000  -0.000012  -0.000001
     3  H   -0.001334  -0.000034   0.000160   0.000014  -0.000052  -0.000076
     4  C   -0.000418   0.000593  -0.000017   0.000001  -0.000027  -0.000002
     5  C    0.000092  -0.000100  -0.000000  -0.000000  -0.000000   0.000000
     6  H   -0.000001  -0.000004  -0.000000   0.000000  -0.000000  -0.000000
     7  H    0.000000   0.000015  -0.000000   0.000000   0.000000   0.000000
     8  H    0.000004  -0.000009  -0.000000   0.000000   0.000000  -0.000000
     9  C   -0.041938  -0.042839   0.000010   0.000000  -0.000032   0.000000
    10  H    0.003315  -0.002646  -0.000000   0.000000   0.000000  -0.000000
    11  C    0.408023   0.403005  -0.000097   0.000002   0.000040  -0.000003
    12  H   -0.026860  -0.033275   0.000002   0.000000  -0.000008  -0.000000
    13  H    0.573888  -0.030011   0.000010  -0.000006   0.000570   0.000034
    14  H   -0.030011   0.586790  -0.000004  -0.000000   0.000042   0.000000
    15  C    0.000010  -0.000004   4.909203   0.398275   0.406150   0.402441
    16  H   -0.000006  -0.000000   0.398275   0.582509  -0.026280  -0.033084
    17  H    0.000570   0.000042   0.406150  -0.026280   0.568183  -0.030015
    18  H    0.000034   0.000000   0.402441  -0.033084  -0.030015   0.586185
    19  C   -0.000013   0.000000   0.348397  -0.043826  -0.037052  -0.043929
    20  C    0.000000  -0.000000  -0.065377  -0.001684   0.003678  -0.003429
    21  H   -0.000000  -0.000000   0.003695  -0.000079  -0.000108   0.000010
    22  H   -0.000000   0.000000  -0.002141  -0.000371  -0.000072   0.002847
    23  H   -0.000000  -0.000000  -0.001105   0.002553  -0.000023  -0.000507
    24  C    0.000003  -0.000004  -0.043316  -0.000843  -0.002870   0.000449
    25  H   -0.000001   0.000000   0.003365  -0.000126   0.000059  -0.000110
    26  C   -0.000212   0.000091  -0.007532   0.000188  -0.001944   0.000286
    27  H   -0.000251  -0.000079  -0.002065   0.000056  -0.001169  -0.000043
    28  H   -0.000008   0.000000   0.000169   0.000032   0.000031  -0.000012
              19         20         21         22         23         24
     1  C   -0.003608  -0.000101  -0.000003   0.000022  -0.000004  -0.063059
     2  H    0.000615  -0.000000   0.000002  -0.000001   0.000000  -0.000607
     3  H    0.001046  -0.000042  -0.000002  -0.000005   0.000001  -0.000806
     4  C    0.000006   0.000002   0.000000  -0.000000   0.000000   0.006129
     5  C   -0.000002  -0.000000  -0.000000   0.000000  -0.000000  -0.000158
     6  H    0.000000  -0.000000  -0.000000  -0.000000   0.000000   0.000000
     7  H    0.000000  -0.000000  -0.000000   0.000000   0.000000  -0.000086
     8  H    0.000000   0.000000   0.000000  -0.000000   0.000000   0.000003
     9  C    0.000001  -0.000000  -0.000000  -0.000000   0.000000   0.000070
    10  H    0.000000   0.000000   0.000000  -0.000000   0.000000   0.000002
    11  C    0.000007  -0.000000   0.000000   0.000000  -0.000000  -0.000032
    12  H   -0.000000   0.000000  -0.000000  -0.000000   0.000000   0.000002
    13  H   -0.000013   0.000000  -0.000000  -0.000000  -0.000000   0.000003
    14  H    0.000000  -0.000000  -0.000000   0.000000  -0.000000  -0.000004
    15  C    0.348397  -0.065377   0.003695  -0.002141  -0.001105  -0.043316
    16  H   -0.043826  -0.001684  -0.000079  -0.000371   0.002553  -0.000843
    17  H   -0.037052   0.003678  -0.000108  -0.000072  -0.000023  -0.002870
    18  H   -0.043929  -0.003429   0.000010   0.002847  -0.000507   0.000449
    19  C    4.918246   0.352277  -0.040398  -0.044308  -0.045763   0.698173
    20  C    0.352277   4.903259   0.405427   0.396993   0.399261  -0.044867
    21  H   -0.040398   0.405427   0.568038  -0.027368  -0.027565  -0.002386
    22  H   -0.044308   0.396993  -0.027368   0.594296  -0.034907  -0.000546
    23  H   -0.045763   0.399261  -0.027565  -0.034907   0.593092  -0.001137
    24  C    0.698173  -0.044867  -0.002386  -0.000546  -0.001137   4.961501
    25  H   -0.036145  -0.006748   0.002177   0.000235   0.000150   0.402020
    26  C   -0.048262   0.003153   0.000146  -0.000086  -0.000124   0.339918
    27  H    0.000822   0.000071   0.000006  -0.000004   0.000004  -0.043813
    28  H    0.000915  -0.000102  -0.000011  -0.000002   0.000012  -0.043345
              25         26         27         28
     1  C    0.000004   0.326244  -0.040295  -0.045130
     2  H    0.001003  -0.044607   0.004203  -0.002603
     3  H    0.000213  -0.039855  -0.002145   0.004290
     4  C   -0.000155  -0.057359  -0.001436  -0.001850
     5  C    0.000010  -0.000187   0.000317  -0.000392
     6  H   -0.000002   0.000027   0.000012   0.000093
     7  H    0.000012   0.000810  -0.000009  -0.000188
     8  H   -0.000000  -0.000097  -0.000010  -0.000025
     9  C   -0.000002  -0.004368   0.001215   0.000514
    10  H   -0.000000  -0.000116  -0.000044   0.000004
    11  C    0.000000   0.000690   0.000070  -0.000030
    12  H    0.000000  -0.000050   0.000023  -0.000000
    13  H   -0.000001  -0.000212  -0.000251  -0.000008
    14  H    0.000000   0.000091  -0.000079   0.000000
    15  C    0.003365  -0.007532  -0.002065   0.000169
    16  H   -0.000126   0.000188   0.000056   0.000032
    17  H    0.000059  -0.001944  -0.001169   0.000031
    18  H   -0.000110   0.000286  -0.000043  -0.000012
    19  C   -0.036145  -0.048262   0.000822   0.000915
    20  C   -0.006748   0.003153   0.000071  -0.000102
    21  H    0.002177   0.000146   0.000006  -0.000011
    22  H    0.000235  -0.000086  -0.000004  -0.000002
    23  H    0.000150  -0.000124   0.000004   0.000012
    24  C    0.402020   0.339918  -0.043813  -0.043345
    25  H    0.558516  -0.041272   0.003230  -0.003485
    26  C   -0.041272   4.982314   0.414866   0.413774
    27  H    0.003230   0.414866   0.571260  -0.029599
    28  H   -0.003485   0.413774  -0.029599   0.588468
 Mulliken charges:
               1
     1  C   -0.234038
     2  H    0.115661
     3  H    0.126386
     4  C    0.015525
     5  C   -0.339903
     6  H    0.115822
     7  H    0.115166
     8  H    0.116729
     9  C   -0.155186
    10  H    0.116517
    11  C   -0.355603
    12  H    0.121547
    13  H    0.116939
    14  H    0.118246
    15  C   -0.350802
    16  H    0.122711
    17  H    0.120965
    18  H    0.118883
    19  C    0.022802
    20  C   -0.341768
    21  H    0.118418
    22  H    0.115418
    23  H    0.116062
    24  C   -0.160396
    25  H    0.117052
    26  C   -0.236436
    27  H    0.124806
    28  H    0.118480
 Sum of Mulliken charges =  -0.00000
 Mulliken charges with hydrogens summed into heavy atoms:
               1
     1  C    0.008008
     4  C    0.015525
     5  C    0.007815
     9  C   -0.038669
    11  C    0.001128
    15  C    0.011756
    19  C    0.022802
    20  C    0.008130
    24  C   -0.043344
    26  C    0.006850
 Electronic spatial extent (au):  <R**2>=           2423.6424
 Charge=             -0.0000 electrons
 Dipole moment (field-independent basis, Debye):
    X=              0.2950    Y=              0.1261    Z=             -0.0060  Tot=              0.3209
 Quadrupole moment (field-independent basis, Debye-Ang):
   XX=            -64.5124   YY=            -63.6031   ZZ=            -67.0537
   XY=              0.6106   XZ=              0.8631   YZ=             -0.4853
 Traceless Quadrupole moment (field-independent basis, Debye-Ang):
   XX=              0.5440   YY=              1.4533   ZZ=             -1.9974
   XY=              0.6106   XZ=              0.8631   YZ=             -0.4853
 Octapole moment (field-independent basis, Debye-Ang**2):
  XXX=              1.3709  YYY=             -2.7214  ZZZ=              0.1840  XYY=             -0.5706
  XXY=              4.5360  XXZ=             -2.6526  XZZ=              1.5758  YZZ=              1.2280
  YYZ=              1.3697  XYZ=             -0.7517
 Hexadecapole moment (field-independent basis, Debye-Ang**3):
 XXXX=          -2492.2787 YYYY=           -696.1215 ZZZZ=           -174.8251 XXXY=             -2.3540
 XXXZ=             11.9400 YYYX=             -9.3552 YYYZ=             -3.0511 ZZZX=             -0.8364
 ZZZY=             -0.0649 XXYY=           -530.4697 XXZZ=           -456.3082 YYZZ=           -139.1716
 XXYZ=             -4.2423 YYXZ=              3.2006 ZZXY=              4.7012
 N-N= 5.164355454796D+02 E-N=-1.937505069399D+03  KE= 3.886260923798D+02
 No NMR shielding tensors so no spin-rotation constants.
 Leave Link  601 at Fri Sep 17 15:39:22 2021, MaxMem=   524288000 cpu:               0.4 elap:               0.4
 (Enter /opt/gaussian/g16_legacy/l701.exe)
 ... and contract with generalized density number  2.
 Compute integral first derivatives.
 Leave Link  701 at Fri Sep 17 15:39:23 2021, MaxMem=   524288000 cpu:               0.3 elap:               0.3
 (Enter /opt/gaussian/g16_legacy/l702.exe)
 L702 exits ... SP integral derivatives will be done elsewhere.
 Leave Link  702 at Fri Sep 17 15:39:23 2021, MaxMem=   524288000 cpu:               0.0 elap:               0.1
 (Enter /opt/gaussian/g16_legacy/l703.exe)
 Integral derivatives from FoFJK, PRISM(SPDF).
 Compute integral first derivatives, UseDBF=F ICtDFT=           0.
 Calling FoFJK, ICntrl=  10002127 FMM=F ISym2X=0 I1Cent= 0 IOpClX= 0 NMat=1 NMatS=1 NMatT=0.
 FoFJK:  IHMeth= 1 ICntrl=10002127 DoSepK=F KAlg= 0 I1Cent=           0 FoldK=F
 IRaf=         0 NMat=       1 IRICut=       1 DoRegI=T DoRafI=F ISym2E= 0 IDoP0=0 IntGTp=1.
 FoFCou: FMM=F IPFlag=           0 FMFlag=      100000 FMFlg1=         800
         NFxFlg=           0 DoJE=F BraDBF=F KetDBF=F FulRan=T
         wScrn=  0.000000 ICntrl=  10002127 IOpCl=  0 I1Cent=           0 NGrid=           0
         NMat0=    1 NMatS0=      1 NMatT0=    0 NMatD0=    1 NMtDS0=    0 NMtDT0=    0
 Symmetry not used in FoFCou.
 Leave Link  703 at Fri Sep 17 15:39:58 2021, MaxMem=   524288000 cpu:              35.5 elap:              35.6
 (Enter /opt/gaussian/g16_legacy/l716.exe)
 Dipole        = 9.11637807D-02 6.68675818D-02-4.80002525D-03
 ***** Axes restored to original set *****
 -------------------------------------------------------------------
 Center     Atomic                   Forces (Hartrees/Bohr)
 Number     Number              X              Y              Z
 -------------------------------------------------------------------
      1        6           0.005624561   -0.003756941    0.006620215
      2        1          -0.000553877   -0.002739130   -0.002544203
      3        1          -0.000384043   -0.001753917   -0.004326530
      4        6           0.004718872    0.002896767    0.003339775
      5        6           0.002544897   -0.001983306   -0.000157356
      6        1          -0.001200393   -0.001022103   -0.002997380
      7        1           0.001154379    0.002697891    0.001639764
      8        1          -0.004029855    0.000575148    0.000651367
      9        6          -0.001360641    0.000466201   -0.003457985
     10        1          -0.001294893    0.002804774   -0.001767224
     11        6          -0.002375726   -0.000835240    0.000916719
     12        1          -0.002250815   -0.002470529   -0.000816114
     13        1           0.003276201    0.000634630    0.000014587
     14        1          -0.000016906    0.001846227    0.002923834
     15        6           0.003616499   -0.002740211    0.000491584
     16        1          -0.000399837    0.000286231    0.003105414
     17        1          -0.001516862    0.002406720   -0.001961042
     18        1          -0.001083455   -0.000217864   -0.003493858
     19        6           0.002044740    0.004804133    0.000943740
     20        6           0.001079042    0.003164975   -0.000743091
     21        1           0.000867893   -0.004125218    0.001124561
     22        1          -0.001852260   -0.001237590   -0.002709904
     23        1          -0.000249957    0.000780660    0.003276201
     24        6           0.001503756   -0.002295558   -0.004454263
     25        1          -0.002644859   -0.001284839    0.001705978
     26        6          -0.007093193    0.000831431   -0.003406255
     27        1           0.000738755    0.002689463    0.002936470
     28        1           0.001137978   -0.000422804    0.003144996
 -------------------------------------------------------------------
 Cartesian Forces:  Max     0.007093193 RMS     0.002569592
 Leave Link  716 at Fri Sep 17 15:39:59 2021, MaxMem=   524288000 cpu:               0.1 elap:               0.1
 (Enter /opt/gaussian/g16_legacy/l103.exe)

 GradGradGradGradGradGradGradGradGradGradGradGradGradGradGradGradGradGrad
 Berny optimization.
 FormGI is forming the generalized inverse of G from B-inverse, IUseBI=4.
 Internal  Forces:  Max     0.004888097 RMS     0.001915748
 Search for a local minimum.
 Step number   1 out of a maximum of  138
 All quantities printed in internal units (Hartrees-Bohrs-Radians)
 RMS Force = .19157D-02 SwitMx=.10000D-02 MixMth= 1
 Mixed Optimization -- RFO/linear search
 Second derivative matrix not updated -- first step.
 ITU=  0
     Eigenvalues ---    0.00342   0.00570   0.00670   0.00681   0.00692
     Eigenvalues ---    0.00713   0.00817   0.01219   0.01286   0.01569
     Eigenvalues ---    0.01641   0.02780   0.02784   0.04018   0.04138
     Eigenvalues ---    0.05349   0.05399   0.06978   0.07035   0.07091
     Eigenvalues ---    0.07093   0.07268   0.07301   0.07347   0.07504
     Eigenvalues ---    0.09277   0.09361   0.12767   0.12843   0.15999
     Eigenvalues ---    0.15999   0.16000   0.16000   0.16000   0.16000
     Eigenvalues ---    0.16000   0.16000   0.16000   0.16000   0.16000
     Eigenvalues ---    0.16000   0.16000   0.16000   0.21859   0.21866
     Eigenvalues ---    0.22000   0.22000   0.24994   0.24997   0.24998
     Eigenvalues ---    0.24999   0.29235   0.30875   0.31629   0.31713
     Eigenvalues ---    0.31802   0.31963   0.32788   0.33872   0.33979
     Eigenvalues ---    0.34062   0.34197   0.34218   0.34226   0.34241
     Eigenvalues ---    0.34241   0.34250   0.34254   0.34261   0.34268
     Eigenvalues ---    0.34302   0.34334   0.34549   0.34559   0.34803
     Eigenvalues ---    0.34853   0.55504   0.55570
 RFO step:  Lambda=-2.95668649D-03 EMin= 3.41939949D-03
 Linear search not attempted -- first point.
 Iteration  1 RMS(Cart)=  0.03966655 RMS(Int)=  0.00072233
 Iteration  2 RMS(Cart)=  0.00093395 RMS(Int)=  0.00016593
 Iteration  3 RMS(Cart)=  0.00000043 RMS(Int)=  0.00016593
 ITry= 1 IFail=0 DXMaxC= 1.71D-01 DCOld= 1.00D+10 DXMaxT= 3.00D-01 DXLimC= 3.00D+00 Rises=F
 Variable       Old X    -DE/DX   Delta X   Delta X   Delta X     New X
                                 (Linear)    (Quad)   (Total)
    R1        2.07547  -0.00275   0.00000  -0.00805  -0.00805   2.06742
    R2        2.07226  -0.00332   0.00000  -0.00966  -0.00966   2.06260
    R3        2.86252  -0.00351   0.00000  -0.01126  -0.01126   2.85126
    R4        2.89516   0.00170   0.00000   0.00577   0.00577   2.90094
    R5        2.84827  -0.00047   0.00000  -0.00147  -0.00147   2.84681
    R6        2.54687  -0.00393   0.00000  -0.00704  -0.00704   2.53983
    R7        2.06911  -0.00216   0.00000  -0.00626  -0.00626   2.06285
    R8        2.06823  -0.00176   0.00000  -0.00509  -0.00509   2.06315
    R9        2.06964  -0.00373   0.00000  -0.01081  -0.01081   2.05883
   R10        2.05915  -0.00219   0.00000  -0.00623  -0.00623   2.05292
   R11        2.82725   0.00307   0.00000   0.00927   0.00927   2.83652
   R12        2.06770  -0.00158   0.00000  -0.00457  -0.00457   2.06313
   R13        2.06397  -0.00287   0.00000  -0.00825  -0.00825   2.05572
   R14        2.06892  -0.00260   0.00000  -0.00752  -0.00752   2.06140
   R15        2.06880  -0.00185   0.00000  -0.00535  -0.00535   2.06345
   R16        2.06413  -0.00282   0.00000  -0.00811  -0.00811   2.05602
   R17        2.06999  -0.00263   0.00000  -0.00762  -0.00762   2.06237
   R18        2.84212  -0.00052   0.00000  -0.00162  -0.00162   2.84049
   R19        2.84671  -0.00074   0.00000  -0.00231  -0.00231   2.84440
   R20        2.54629  -0.00327   0.00000  -0.00586  -0.00586   2.54043
   R21        2.06950  -0.00397   0.00000  -0.01151  -0.01151   2.05800
   R22        2.06903  -0.00196   0.00000  -0.00567  -0.00567   2.06337
   R23        2.06925  -0.00203   0.00000  -0.00589  -0.00589   2.06336
   R24        2.05996  -0.00194   0.00000  -0.00554  -0.00554   2.05442
   R25        2.84508  -0.00152   0.00000  -0.00473  -0.00473   2.84036
   R26        2.06925  -0.00280   0.00000  -0.00812  -0.00812   2.06113
   R27        2.07365  -0.00234   0.00000  -0.00682  -0.00682   2.06683
    A1        1.82997   0.00206   0.00000   0.02243   0.02226   1.85223
    A2        1.90271  -0.00070   0.00000  -0.00277  -0.00276   1.89995
    A3        1.91995  -0.00193   0.00000  -0.01716  -0.01719   1.90276
    A4        1.93014   0.00043   0.00000   0.00929   0.00933   1.93947
    A5        1.91831  -0.00277   0.00000  -0.02019  -0.02023   1.89808
    A6        1.95841   0.00282   0.00000   0.00907   0.00911   1.96752
    A7        2.00826   0.00238   0.00000   0.00970   0.00914   2.01740
    A8        2.17076  -0.00489   0.00000  -0.01896  -0.01949   2.15126
    A9        2.10399   0.00253   0.00000   0.01036   0.00978   2.11377
   A10        1.92479   0.00166   0.00000   0.00901   0.00903   1.93383
   A11        1.92812   0.00227   0.00000   0.01209   0.01212   1.94023
   A12        1.95922  -0.00262   0.00000  -0.01306  -0.01302   1.94620
   A13        1.89501  -0.00307   0.00000  -0.02474  -0.02474   1.87028
   A14        1.87756   0.00109   0.00000   0.01019   0.01022   1.88778
   A15        1.87698   0.00055   0.00000   0.00566   0.00570   1.88268
   A16        2.06977  -0.00195   0.00000  -0.01343  -0.01345   2.05632
   A17        2.22508  -0.00187   0.00000  -0.00835  -0.00836   2.21671
   A18        1.98821   0.00382   0.00000   0.02194   0.02193   2.01013
   A19        1.91722   0.00395   0.00000   0.02330   0.02326   1.94049
   A20        1.98123  -0.00299   0.00000  -0.01842  -0.01833   1.96290
   A21        1.91002   0.00238   0.00000   0.01559   0.01553   1.92555
   A22        1.89282  -0.00095   0.00000  -0.00757  -0.00747   1.88534
   A23        1.88718  -0.00309   0.00000  -0.01887  -0.01905   1.86813
   A24        1.87275   0.00052   0.00000   0.00489   0.00496   1.87772
   A25        1.88439   0.00024   0.00000   0.00332   0.00334   1.88773
   A26        1.89085  -0.00242   0.00000  -0.02174  -0.02173   1.86912
   A27        1.92154   0.00231   0.00000   0.01172   0.01175   1.93329
   A28        1.86370   0.00200   0.00000   0.01700   0.01701   1.88071
   A29        1.97973  -0.00223   0.00000  -0.01023  -0.01021   1.96952
   A30        1.92074   0.00001   0.00000  -0.00084  -0.00083   1.91992
   A31        1.99469   0.00146   0.00000   0.00580   0.00578   2.00048
   A32        2.18265  -0.00329   0.00000  -0.01298  -0.01300   2.16964
   A33        2.10580   0.00183   0.00000   0.00729   0.00727   2.11306
   A34        1.96060  -0.00276   0.00000  -0.01383  -0.01379   1.94681
   A35        1.92493   0.00220   0.00000   0.01237   0.01240   1.93733
   A36        1.92354   0.00173   0.00000   0.00869   0.00871   1.93225
   A37        1.87920   0.00092   0.00000   0.00935   0.00939   1.88859
   A38        1.87877   0.00092   0.00000   0.00794   0.00798   1.88674
   A39        1.89478  -0.00313   0.00000  -0.02536  -0.02535   1.86943
   A40        2.06713  -0.00167   0.00000  -0.01182  -0.01222   2.05491
   A41        2.22714  -0.00225   0.00000  -0.00994  -0.01036   2.21679
   A42        1.98878   0.00394   0.00000   0.02255   0.02213   2.01091
   A43        1.94450   0.00330   0.00000   0.01364   0.01366   1.95816
   A44        1.92597  -0.00263   0.00000  -0.02487  -0.02494   1.90103
   A45        1.92090  -0.00239   0.00000  -0.01478  -0.01497   1.90593
   A46        1.94657  -0.00053   0.00000  -0.00241  -0.00236   1.94421
   A47        1.88065   0.00061   0.00000   0.01704   0.01709   1.89773
   A48        1.84192   0.00155   0.00000   0.01190   0.01163   1.85355
    D1       -0.63962   0.00058   0.00000  -0.02154  -0.02130  -0.66092
    D2        2.48161   0.00156   0.00000   0.04061   0.04041   2.52202
    D3       -2.64281  -0.00174   0.00000  -0.05207  -0.05186  -2.69467
    D4        0.47841  -0.00076   0.00000   0.01008   0.00985   0.48827
[...]
                 (A) (A) (A) (A) (A) (A) (A) (A) (A) (A) (A) (A)
                 (A) (A) (A) (A) (A) (A) (A) (A) (A) (A) (A) (A)
                 (A) (A) (A) (A) (A) (A) (A) (A) (A) (A) (A) (A)
                 (A) (A) (A) (A) (A) (A) (A) (A) (A) (A) (A) (A)
                 (A) (A) (A) (A) (A) (A) (A) (A) (A) (A) (A) (A)
                 (A) (A) (A) (A) (A) (A) (A) (A) (A) (A) (A) (A)
                 (A) (A) (A) (A) (A) (A) (A) (A) (A) (A) (A) (A)
                 (A) (A) (A) (A) (A) (A) (A) (A) (A) (A) (A) (A)
                 (A) (A) (A) (A) (A) (A) (A) (A) (A) (A) (A) (A)
                 (A) (A) (A) (A) (A) (A) (A) (A) (A) (A) (A) (A)
                 (A) (A) (A) (A) (A) (A) (A) (A) (A) (A) (A) (A)
                 (A) (A) (A) (A) (A) (A) (A) (A) (A) (A) (A) (A)
                 (A) (A) (A) (A) (A) (A) (A) (A) (A) (A) (A) (A)
                 (A) (A) (A) (A) (A) (A) (A) (A) (A) (A) (A) (A)
                 (A) (A) (A) (A) (A) (A) (A) (A) (A)
 The electronic state is 1-A.
 Alpha  occ. eigenvalues --  -11.23020 -11.22460 -11.21868 -11.21729 -11.21712
 Alpha  occ. eigenvalues --  -11.21539 -11.21506 -11.21436 -11.21417 -11.21348
 Alpha  occ. eigenvalues --   -1.10821  -1.08492  -1.01823  -0.98143  -0.93838
 Alpha  occ. eigenvalues --   -0.91939  -0.86963  -0.82855  -0.70494  -0.69519
 Alpha  occ. eigenvalues --   -0.64988  -0.61512  -0.60591  -0.58878  -0.58366
 Alpha  occ. eigenvalues --   -0.56774  -0.55298  -0.54966  -0.53295  -0.52261
 Alpha  occ. eigenvalues --   -0.51859  -0.51173  -0.50832  -0.49581  -0.48519
 Alpha  occ. eigenvalues --   -0.46073  -0.44624  -0.33371  -0.31514
 Alpha virt. eigenvalues --    0.18142   0.19779   0.22152   0.24486   0.25192
 Alpha virt. eigenvalues --    0.27439   0.28535   0.28922   0.30318   0.30811
 Alpha virt. eigenvalues --    0.31477   0.32261   0.33202   0.33794   0.34383
 Alpha virt. eigenvalues --    0.35458   0.36114   0.36962   0.39185   0.40602
 Alpha virt. eigenvalues --    0.41328   0.42631   0.43685   0.44253   0.45395
 Alpha virt. eigenvalues --    0.51702   0.54378   0.61070   0.62576   0.70520
 Alpha virt. eigenvalues --    0.71073   0.72196   0.73768   0.76075   0.76177
 Alpha virt. eigenvalues --    0.76620   0.79010   0.79474   0.81070   0.82306
 Alpha virt. eigenvalues --    0.83713   0.85579   0.89117   0.91091   0.91343
 Alpha virt. eigenvalues --    0.92820   0.94745   0.97065   0.98284   0.98818
 Alpha virt. eigenvalues --    0.99710   1.00468   1.01911   1.03844   1.06577
 Alpha virt. eigenvalues --    1.08019   1.08221   1.09393   1.11664   1.12687
 Alpha virt. eigenvalues --    1.13026   1.13870   1.14856   1.15402   1.16045
 Alpha virt. eigenvalues --    1.16257   1.16619   1.18722   1.19116   1.20671
 Alpha virt. eigenvalues --    1.20953   1.23032   1.23885   1.25765   1.28153
 Alpha virt. eigenvalues --    1.34331   1.41722   1.42153   1.44890   1.46395
 Alpha virt. eigenvalues --    1.48456   1.54136   1.55360   1.57256   1.58165
 Alpha virt. eigenvalues --    1.61459   1.63397   1.66485   1.69046   1.69645
 Alpha virt. eigenvalues --    1.73917   1.82243   1.91111   1.93363   1.96231
 Alpha virt. eigenvalues --    1.98688   2.01467   2.02277   2.03942   2.08565
 Alpha virt. eigenvalues --    2.09706   2.10748   2.11744   2.13037   2.14903
 Alpha virt. eigenvalues --    2.15780   2.16940   2.19854   2.23666   2.28347
 Alpha virt. eigenvalues --    2.29590   2.30325   2.33235   2.35347   2.35688
 Alpha virt. eigenvalues --    2.35978   2.36098   2.38923   2.40264   2.41259
 Alpha virt. eigenvalues --    2.42195   2.43169   2.44154   2.45371   2.46084
 Alpha virt. eigenvalues --    2.47201   2.49167   2.49622   2.51174   2.54099
 Alpha virt. eigenvalues --    2.57315   2.58365   2.61888   2.63241   2.64107
 Alpha virt. eigenvalues --    2.67127   2.68175   2.71776   2.73352   2.73474
 Alpha virt. eigenvalues --    2.75815   2.77410   2.80796   2.82634   2.85354
 Alpha virt. eigenvalues --    2.87137   2.89441   2.92178   2.93739   2.94867
 Alpha virt. eigenvalues --    2.97869   2.99094   3.00960   3.02677   3.05807
 Alpha virt. eigenvalues --    3.06402   3.07703   3.09315   3.13762   3.17093
 Alpha virt. eigenvalues --    3.17589   3.19238   3.20046   3.21242   3.22334
 Alpha virt. eigenvalues --    3.24167   3.25050   3.26607   3.27420   3.37866
 Alpha virt. eigenvalues --    3.40355   3.46023   3.46902   3.56200   3.58183
 Alpha virt. eigenvalues --    3.59499   3.62406   3.67928   3.75494   3.78622
 Alpha virt. eigenvalues --    3.80005   3.81570   3.82569   3.83286   3.83898
 Alpha virt. eigenvalues --    3.84750   3.86481   3.87645   3.89820   3.91558
 Alpha virt. eigenvalues --    3.97645   4.59389   4.63170   4.74472   4.82572
 Alpha virt. eigenvalues --    4.88928   4.92582   4.93409   5.07840   5.10766
 Alpha virt. eigenvalues --    5.17766
          Condensed to atoms (all electrons):
               1          2          3          4          5          6
     1  C    5.004768   0.414473   0.411714   0.337355  -0.056085  -0.003698
     2  H    0.414473   0.587507  -0.028296  -0.046308  -0.004587   0.002378
     3  H    0.411714  -0.028296   0.572983  -0.038988   0.003071  -0.000034
     4  C    0.337355  -0.046308  -0.038988   4.952603   0.351934  -0.041506
     5  C   -0.056085  -0.004587   0.003071   0.351934   4.891804   0.397495
     6  H   -0.003698   0.002378  -0.000034  -0.041506   0.397495   0.591921
     7  H    0.000011  -0.000489  -0.000005  -0.045679   0.400946  -0.037541
     8  H    0.003801   0.000106  -0.000108  -0.042765   0.407087  -0.026764
     9  C   -0.047991   0.002531  -0.001860   0.697840  -0.046054  -0.000373
    10  H    0.003272  -0.000118   0.000031  -0.037842  -0.006525   0.000216
    11  C   -0.007749   0.000160  -0.002811  -0.050271   0.003364  -0.000105
    12  H    0.000152   0.000017   0.000184  -0.000627  -0.000106   0.000017
    13  H   -0.001745   0.000030  -0.001657  -0.000691   0.000109   0.000002
    14  H    0.000310  -0.000013  -0.000067  -0.000247  -0.000095  -0.000004
    15  C    0.000587  -0.000015   0.000200  -0.000018  -0.000000   0.000000
    16  H   -0.000040   0.000000   0.000022   0.000001  -0.000000   0.000000
    17  H   -0.000302  -0.000016  -0.000131  -0.000011  -0.000000  -0.000000
    18  H    0.000130  -0.000002  -0.000135  -0.000005   0.000000  -0.000000
    19  C   -0.004325   0.000787   0.001388   0.000041  -0.000003   0.000000
    20  C   -0.000099  -0.000004  -0.000043   0.000001  -0.000000  -0.000000
    21  H   -0.000003   0.000003  -0.000002   0.000000  -0.000000  -0.000000
    22  H    0.000024  -0.000002  -0.000007  -0.000000   0.000000  -0.000000
    23  H   -0.000005   0.000000   0.000002   0.000000  -0.000000   0.000000
    24  C   -0.061827  -0.000900  -0.000504   0.006443  -0.000149   0.000004
    25  H    0.000175   0.001011   0.000111  -0.000152   0.000010  -0.000001
    26  C    0.332330  -0.046074  -0.041801  -0.055544  -0.000661   0.000086
    27  H   -0.042369   0.004477  -0.003118  -0.001813   0.000243   0.000006
    28  H   -0.046841  -0.001931   0.004515  -0.002075  -0.000289   0.000058
               7          8          9         10         11         12
     1  C    0.000011   0.003801  -0.047991   0.003272  -0.007749   0.000152
     2  H   -0.000489   0.000106   0.002531  -0.000118   0.000160   0.000017
     3  H   -0.000005  -0.000108  -0.001860   0.000031  -0.002811   0.000184
     4  C   -0.045679  -0.042765   0.697840  -0.037842  -0.050271  -0.000627
     5  C    0.400946   0.407087  -0.046054  -0.006525   0.003364  -0.000106
     6  H   -0.037541  -0.026764  -0.000373   0.000216  -0.000105   0.000017
     7  H    0.596034  -0.027466  -0.001011   0.000135  -0.000101  -0.000004
     8  H   -0.027466   0.568858  -0.002890   0.002385   0.000132  -0.000006
     9  C   -0.001011  -0.002890   4.938970   0.404494   0.340494  -0.041523
    10  H    0.000135   0.002385   0.404494   0.558671  -0.041279  -0.001122
    11  C   -0.000101   0.000132   0.340494  -0.041279   4.900974   0.401144
    12  H   -0.000004  -0.000006  -0.041523  -0.001122   0.401144   0.583648
    13  H   -0.000003   0.000005  -0.043903   0.003299   0.409079  -0.027132
    14  H    0.000017  -0.000006  -0.041805  -0.001264   0.402169  -0.035462
    15  C   -0.000000  -0.000000   0.000015  -0.000000  -0.000147   0.000004
    16  H   -0.000000   0.000000   0.000000   0.000000   0.000003   0.000000
    17  H    0.000000   0.000000  -0.000045   0.000000   0.000074  -0.000013
    18  H    0.000000  -0.000000   0.000000  -0.000000  -0.000009  -0.000000
    19  C    0.000000   0.000000  -0.000001   0.000000   0.000013  -0.000000
    20  C   -0.000000   0.000000  -0.000000   0.000000  -0.000000   0.000000
    21  H   -0.000000   0.000000  -0.000000   0.000000   0.000000  -0.000000
    22  H    0.000000  -0.000000   0.000000  -0.000000  -0.000000  -0.000000
    23  H    0.000000   0.000000   0.000000   0.000000   0.000000   0.000000
    24  C   -0.000111   0.000004   0.000114   0.000002  -0.000031   0.000002
    25  H    0.000015  -0.000000  -0.000002  -0.000000   0.000000   0.000000
    26  C    0.000609  -0.000109  -0.004911  -0.000113   0.000577  -0.000037
    27  H   -0.000015  -0.000005   0.001406  -0.000046  -0.000082   0.000037
    28  H    0.000197  -0.000050   0.000760   0.000001  -0.000033  -0.000000
              13         14         15         16         17         18
     1  C   -0.001745   0.000310   0.000587  -0.000040  -0.000302   0.000130
     2  H    0.000030  -0.000013  -0.000015   0.000000  -0.000016  -0.000002
     3  H   -0.001657  -0.000067   0.000200   0.000022  -0.000131  -0.000135
     4  C   -0.000691  -0.000247  -0.000018   0.000001  -0.000011  -0.000005
     5  C    0.000109  -0.000095  -0.000000  -0.000000  -0.000000   0.000000
     6  H    0.000002  -0.000004   0.000000   0.000000  -0.000000  -0.000000
     7  H   -0.000003   0.000017  -0.000000  -0.000000   0.000000   0.000000
     8  H    0.000005  -0.000006  -0.000000   0.000000   0.000000  -0.000000
     9  C   -0.043903  -0.041805   0.000015   0.000000  -0.000045   0.000000
    10  H    0.003299  -0.001264  -0.000000   0.000000   0.000000  -0.000000
    11  C    0.409079   0.402169  -0.000147   0.000003   0.000074  -0.000009
    12  H   -0.027132  -0.035462   0.000004   0.000000  -0.000013  -0.000000
    13  H    0.577164  -0.029956  -0.000000  -0.000008   0.000412   0.000079
    14  H   -0.029956   0.586720  -0.000015  -0.000000   0.000114   0.000000
    15  C   -0.000000  -0.000015   4.907254   0.399852   0.407154   0.401208
    16  H   -0.000008  -0.000000   0.399852   0.584669  -0.026060  -0.035759
    17  H    0.000412   0.000114   0.407154  -0.026060   0.568221  -0.028659
    18  H    0.000079   0.000000   0.401208  -0.035759  -0.028659   0.587442
    19  C   -0.000026   0.000001   0.350332  -0.043537  -0.037848  -0.043385
    20  C    0.000000  -0.000000  -0.064931  -0.002223   0.003725  -0.002632
    21  H   -0.000000  -0.000000   0.003785  -0.000053  -0.000113  -0.000032
    22  H   -0.000000   0.000000  -0.001975  -0.000456  -0.000068   0.002756
    23  H   -0.000000  -0.000000  -0.001201   0.002766  -0.000031  -0.000476
    24  C    0.000026  -0.000009  -0.044248  -0.000365  -0.003253  -0.000031
    25  H   -0.000002   0.000000   0.003528  -0.000121   0.000061  -0.000121
    26  C   -0.000737   0.000163  -0.008144   0.000117  -0.002069   0.000367
    27  H   -0.000475  -0.000140  -0.002693   0.000113  -0.001675  -0.000076
    28  H   -0.000010  -0.000000   0.000195   0.000021   0.000058  -0.000014
              19         20         21         22         23         24
     1  C   -0.004325  -0.000099  -0.000003   0.000024  -0.000005  -0.061827
     2  H    0.000787  -0.000004   0.000003  -0.000002   0.000000  -0.000900
     3  H    0.001388  -0.000043  -0.000002  -0.000007   0.000002  -0.000504
     4  C    0.000041   0.000001   0.000000  -0.000000   0.000000   0.006443
     5  C   -0.000003  -0.000000  -0.000000   0.000000  -0.000000  -0.000149
     6  H    0.000000  -0.000000  -0.000000  -0.000000   0.000000   0.000004
     7  H    0.000000  -0.000000  -0.000000   0.000000   0.000000  -0.000111
     8  H    0.000000   0.000000   0.000000  -0.000000   0.000000   0.000004
     9  C   -0.000001  -0.000000  -0.000000   0.000000   0.000000   0.000114
    10  H    0.000000   0.000000   0.000000  -0.000000   0.000000   0.000002
    11  C    0.000013  -0.000000   0.000000  -0.000000   0.000000  -0.000031
    12  H   -0.000000   0.000000  -0.000000  -0.000000   0.000000   0.000002
    13  H   -0.000026   0.000000  -0.000000  -0.000000  -0.000000   0.000026
    14  H    0.000001  -0.000000  -0.000000   0.000000  -0.000000  -0.000009
    15  C    0.350332  -0.064931   0.003785  -0.001975  -0.001201  -0.044248
    16  H   -0.043537  -0.002223  -0.000053  -0.000456   0.002766  -0.000365
    17  H   -0.037848   0.003725  -0.000113  -0.000068  -0.000031  -0.003253
    18  H   -0.043385  -0.002632  -0.000032   0.002756  -0.000476  -0.000031
    19  C    4.914192   0.353753  -0.041639  -0.043899  -0.044274   0.697734
    20  C    0.353753   4.900112   0.406218   0.398238   0.398811  -0.044415
    21  H   -0.041639   0.406218   0.566018  -0.026703  -0.026549  -0.002632
    22  H   -0.043899   0.398238  -0.026703   0.594542  -0.037806  -0.000422
    23  H   -0.044274   0.398811  -0.026549  -0.037806   0.593607  -0.001270
    24  C    0.697734  -0.044415  -0.002632  -0.000422  -0.001270   4.962746
    25  H   -0.038449  -0.006963   0.002335   0.000182   0.000187   0.403391
    26  C   -0.050100   0.003126   0.000148  -0.000068  -0.000131   0.338699
    27  H    0.000438   0.000051   0.000007  -0.000005   0.000007  -0.044060
    28  H    0.001583  -0.000094  -0.000010  -0.000002   0.000009  -0.041394
              25         26         27         28
     1  C    0.000175   0.332330  -0.042369  -0.046841
     2  H    0.001011  -0.046074   0.004477  -0.001931
     3  H    0.000111  -0.041801  -0.003118   0.004515
     4  C   -0.000152  -0.055544  -0.001813  -0.002075
     5  C    0.000010  -0.000661   0.000243  -0.000289
     6  H   -0.000001   0.000086   0.000006   0.000058
     7  H    0.000015   0.000609  -0.000015   0.000197
     8  H   -0.000000  -0.000109  -0.000005  -0.000050
     9  C   -0.000002  -0.004911   0.001406   0.000760
    10  H   -0.000000  -0.000113  -0.000046   0.000001
    11  C    0.000000   0.000577  -0.000082  -0.000033
    12  H    0.000000  -0.000037   0.000037  -0.000000
    13  H   -0.000002  -0.000737  -0.000475  -0.000010
    14  H    0.000000   0.000163  -0.000140  -0.000000
    15  C    0.003528  -0.008144  -0.002693   0.000195
    16  H   -0.000121   0.000117   0.000113   0.000021
    17  H    0.000061  -0.002069  -0.001675   0.000058
    18  H   -0.000121   0.000367  -0.000076  -0.000014
    19  C   -0.038449  -0.050100   0.000438   0.001583
    20  C   -0.006963   0.003126   0.000051  -0.000094
    21  H    0.002335   0.000148   0.000007  -0.000010
    22  H    0.000182  -0.000068  -0.000005  -0.000002
    23  H    0.000187  -0.000131   0.000007   0.000009
    24  C    0.403391   0.338699  -0.044060  -0.041394
    25  H    0.557389  -0.039113   0.003152  -0.003424
    26  C   -0.039113   4.979544   0.415850   0.413482
    27  H    0.003152   0.415850   0.575347  -0.028362
    28  H   -0.003424   0.413482  -0.028362   0.585267
 Mulliken charges:
               1
     1  C   -0.236021
     2  H    0.115272
     3  H    0.125346
     4  C    0.018322
     5  C   -0.341505
     6  H    0.117845
     7  H    0.114461
     8  H    0.117792
     9  C   -0.154256
    10  H    0.115801
    11  C   -0.355567
    12  H    0.120829
    13  H    0.116140
    14  H    0.119588
    15  C   -0.350727
    16  H    0.121058
    17  H    0.120474
    18  H    0.119352
    19  C    0.027221
    20  C   -0.342631
    21  H    0.119222
    22  H    0.115672
    23  H    0.116356
    24  C   -0.163542
    25  H    0.116803
    26  C   -0.235486
    27  H    0.123802
    28  H    0.118380
 Sum of Mulliken charges =  -0.00000
 Mulliken charges with hydrogens summed into heavy atoms:
               1
     1  C    0.004596
     4  C    0.018322
     5  C    0.008593
     9  C   -0.038454
    11  C    0.000991
    15  C    0.010156
    19  C    0.027221
    20  C    0.008618
    24  C   -0.046740
    26  C    0.006696
 Electronic spatial extent (au):  <R**2>=           2384.0070
 Charge=             -0.0000 electrons
 Dipole moment (field-independent basis, Debye):
    X=              0.3027    Y=              0.1253    Z=              0.0460  Tot=              0.3308
 Quadrupole moment (field-independent basis, Debye-Ang):
   XX=            -64.3024   YY=            -63.2901   ZZ=            -67.3956
   XY=              0.7521   XZ=              1.2367   YZ=             -0.3487
 Traceless Quadrupole moment (field-independent basis, Debye-Ang):
   XX=              0.6937   YY=              1.7059   ZZ=             -2.3996
   XY=              0.7521   XZ=              1.2367   YZ=             -0.3487
 Octapole moment (field-independent basis, Debye-Ang**2):
  XXX=              2.6682  YYY=             -2.9989  ZZZ=              0.8999  XYY=             -0.6416
  XXY=              4.0909  XXZ=             -2.0918  XZZ=              1.2120  YZZ=              1.4955
  YYZ=              0.6111  XYZ=             -0.3641
 Hexadecapole moment (field-independent basis, Debye-Ang**3):
 XXXX=          -2435.7178 YYYY=           -693.4923 ZZZZ=           -166.6417 XXXY=              2.3046
 XXXZ=             14.7514 YYYX=            -11.0526 YYYZ=             -1.4215 ZZZX=              2.8119
 ZZZY=             -0.6411 XXYY=           -520.1248 XXZZ=           -449.2342 YYZZ=           -138.3649
 XXYZ=             -4.2785 YYXZ=              0.5785 ZZXY=              5.9188
 N-N= 5.190879462685D+02 E-N=-1.942888631831D+03  KE= 3.887471641196D+02
 No NMR shielding tensors so no spin-rotation constants.
 Leave Link  601 at Fri Sep 17 16:54:31 2021, MaxMem=   524288000 cpu:               0.3 elap:               0.6
 (Enter /opt/gaussian/g16_legacy/l9999.exe)
 1\1\GINC-TRUENO90\FOpt\RMP2-FC\6-31G(d,p)\C10H18\JRAMOS\17-Sep-2021\0\
 \#p opt mp2/6-31g(d,p)\\Conformer number 394. Energy MM = 23.242 kcal/
 mol\\0,1\C,0.9521327009,0.6406138262,0.2751676681\H,1.0976906746,1.723
 2930731,0.2194352917\H,0.4187451804,0.4525594461,1.2082533213\C,2.2946
 187171,-0.0460398922,0.2570884401\C,3.366168248,0.6460514903,-0.540559
 6989\H,3.5995122941,1.623008531,-0.1116884053\H,3.0385559187,0.8203953
 182,-1.5678626986\H,4.2831053554,0.0589674072,-0.573389279\C,2.5324740
 5,-1.22612851,0.8593901239\H,3.528477558,-1.6495125758,0.7631297798\C,
 1.5627792037,-2.03980799,1.661611793\H,1.9245622672,-2.1858375736,2.68
 11949796\H,0.5801001019,-1.5769187503,1.7169330152\H,1.4382039463,-3.0
 320780434,1.2239050533\C,-2.6576509556,-0.731603899,0.2711370672\H,-3.
 4204196931,-1.3093461402,-0.2557165665\H,-1.7613918078,-1.3420262908,0
 .3476073884\H,-3.0346103653,-0.5590692129,1.2815670844\C,-2.4167791567
 ,0.580550781,-0.4224728539\C,-3.6221121637,1.4753505044,-0.5116635379\
 H,-3.3909976888,2.4079933975,-1.0240324171\H,-4.0028775357,1.716125753
 1,0.4834511122\H,-4.4339300143,0.9809886019,-1.05004313\C,-1.233309879
 3,0.960713563,-0.9398147036\H,-1.1805451623,1.9451945961,-1.3979039949
 \C,0.0566656427,0.196485948,-0.8973390571\H,-0.1170911178,-0.877153125
 3,-0.8152315455\H,0.5979236817,0.3474297665,-1.83515423\\Version=EM64L
 -G16RevA.03\State=1-A\HF=-389.1567535\MP2=-390.5738646\RMSD=5.138e-09\
 RMSF=3.210e-06\Dipole=-0.1082227,-0.0244404,0.0347274\PG=C01 [X(C10H18
 )]\\@


 A DANDELION FROM A LOVER MEANS MORE THAN AN ORCHID FROM A FRIEND.
 Job cpu time:       0 days  1 hours 20 minutes 50.8 seconds.
 Elapsed time:       0 days  1 hours 21 minutes  2.7 seconds.
 File lengths (MBytes):  RWF=     32 Int=      0 D2E=      0 Chk=      7 Scr=      1
 Normal termination of Gaussian 16 at Fri Sep 17 16:54:31 2021.
