 Entering Gaussian System, Link 0=/opt/gaussian/g16_legacy/g16
 Input=01-IsoP_518_gaussian.com
 Output=01-IsoP_518_gaussian.log
 Initial command:
 /opt/gaussian/g16_legacy/l1.exe "/scratch-local/jramos/2661423/Gau-25453.inp" -scrdir="/scratch-local/jramos/2661423/"
 Entering Link 1 = /opt/gaussian/g16_legacy/l1.exe PID=     25454.
  
 Copyright (c) 1988,1990,1992,1993,1995,1998,2003,2009,2016,
            Gaussian, Inc.  All Rights Reserved.
  
 This is part of the Gaussian(R) 16 program.  It is based on
 the Gaussian(R) 09 system (copyright 2009, Gaussian, Inc.),
 the Gaussian(R) 03 system (copyright 2003, Gaussian, Inc.),
 the Gaussian(R) 98 system (copyright 1998, Gaussian, Inc.),
 the Gaussian(R) 94 system (copyright 1995, Gaussian, Inc.),
 the Gaussian 92(TM) system (copyright 1992, Gaussian, Inc.),
 the Gaussian 90(TM) system (copyright 1990, Gaussian, Inc.),
 the Gaussian 88(TM) system (copyright 1988, Gaussian, Inc.),
 the Gaussian 86(TM) system (copyright 1986, Carnegie Mellon
 University), and the Gaussian 82(TM) system (copyright 1983,
 Carnegie Mellon University). Gaussian is a federally registered
 trademark of Gaussian, Inc.
  
 This software contains proprietary and confidential information,
 including trade secrets, belonging to Gaussian, Inc.
  
 This software is provided under written license and may be
 used, copied, transmitted, or stored only in accord with that
 written license.
  
 The following legend is applicable only to US Government
 contracts under FAR:
  
                    RESTRICTED RIGHTS LEGEND
  
 Use, reproduction and disclosure by the US Government is
 subject to restrictions as set forth in subparagraphs (a)
 and (c) of the Commercial Computer Software - Restricted
 Rights clause in FAR 52.227-19.
  
 Gaussian, Inc.
 340 Quinnipiac St., Bldg. 40, Wallingford CT 06492
  
  
 ---------------------------------------------------------------
 Warning -- This program may not be used in any manner that
 competes with the business of Gaussian, Inc. or will provide
 assistance to any competitor of Gaussian, Inc.  The licensee
 of this program is prohibited from giving any competitor of
 Gaussian, Inc. access to this program.  By using this program,
 the user acknowledges that Gaussian, Inc. is engaged in the
 business of creating and licensing software in the field of
 computational chemistry and represents and warrants to the
 licensee that it is not a competitor of Gaussian, Inc. and that
 it will not use this program in any manner prohibited above.
 ---------------------------------------------------------------
  

 Cite this work as:
 Gaussian 16, Revision A.03,
 M. J. Frisch, G. W. Trucks, H. B. Schlegel, G. E. Scuseria, 
 M. A. Robb, J. R. Cheeseman, G. Scalmani, V. Barone, 
 G. A. Petersson, H. Nakatsuji, X. Li, M. Caricato, A. V. Marenich, 
 J. Bloino, B. G. Janesko, R. Gomperts, B. Mennucci, H. P. Hratchian, 
 J. V. Ortiz, A. F. Izmaylov, J. L. Sonnenberg, D. Williams-Young, 
 F. Ding, F. Lipparini, F. Egidi, J. Goings, B. Peng, A. Petrone, 
 T. Henderson, D. Ranasinghe, V. G. Zakrzewski, J. Gao, N. Rega, 
 G. Zheng, W. Liang, M. Hada, M. Ehara, K. Toyota, R. Fukuda, 
 J. Hasegawa, M. Ishida, T. Nakajima, Y. Honda, O. Kitao, H. Nakai, 
 T. Vreven, K. Throssell, J. A. Montgomery, Jr., J. E. Peralta, 
 F. Ogliaro, M. J. Bearpark, J. J. Heyd, E. N. Brothers, K. N. Kudin, 
 V. N. Staroverov, T. A. Keith, R. Kobayashi, J. Normand, 
 K. Raghavachari, A. P. Rendell, J. C. Burant, S. S. Iyengar, 
 J. Tomasi, M. Cossi, J. M. Millam, M. Klene, C. Adamo, R. Cammi, 
 J. W. Ochterski, R. L. Martin, K. Morokuma, O. Farkas, 
 J. B. Foresman, and D. J. Fox, Gaussian, Inc., Wallingford CT, 2016.
 
 ******************************************
 Gaussian 16:  EM64L-G16RevA.03 25-Dec-2016
                17-Sep-2021 
 ******************************************
 %chk=01-IsoP_518_gaussian.chk
 %nproc=1
 Will use up to    1 processors via shared memory.
 %mem=4000Mb
 ---------------------
 #p opt mp2/6-31g(d,p)
 ---------------------
 1/18=20,19=15,38=1/1,3;
 2/9=110,12=2,17=6,18=5,40=1/2;
 3/5=1,6=6,7=101,11=9,25=1,30=1,71=1/1,2,3;
 4//1;
 5/5=2,38=5/2;
 8/6=4,10=2/1;
 9/15=2,16=-3/6;
 10/5=1/2;
 6/7=2,8=2,9=2,10=2/1;
 7/12=2/1,2,3,16;
 1/18=20,19=15/3(2);
 2/9=110/2;
 99//99;
 2/9=110/2;
 3/5=1,6=6,7=101,11=9,25=1,30=1,71=1/1,2,3;
 4/5=5,16=3,69=1/1;
 5/5=2,38=5/2;
 8/6=4,10=2/1;
 9/15=2,16=-3/6;
 10/5=1/2;
 7/12=2/1,2,3,16;
 1/18=20,19=15/3(-8);
 2/9=110/2;
 6/7=2,8=2,9=2,10=2/1;
 99//99;
 Leave Link    1 at Fri Sep 17 15:58:04 2021, MaxMem=   524288000 cpu:               0.0 elap:               0.1
 (Enter /opt/gaussian/g16_legacy/l101.exe)
 -------------------------------------------------
 Conformer number 518. Energy MM = 23.242 kcal/mol
 -------------------------------------------------
 Symbolic Z-matrix:
 Charge =  0 Multiplicity = 1
 C                     0.8404    0.3423    0.9057 
 H                     0.5417   -0.6803    1.1656 
 H                     0.8003    0.8965    1.8531 
 C                     2.261     0.365     0.3803 
 C                     3.0096    1.6512    0.619 
 H                     3.0709    1.8612    1.6918 
 H                     2.5006    2.487     0.1287 
 H                     4.0327    1.6139    0.2302 
 C                     2.8601   -0.6717   -0.2385 
 H                     3.8957   -0.5599   -0.5587 
 C                     2.2609   -2.0003   -0.576 
 H                     2.7489   -2.7869    0.0073 
 H                     1.1851   -2.052    -0.3944 
 H                     2.4224   -2.2136   -1.6377 
 C                    -2.4311   -1.0773   -0.8409 
 H                    -1.4076   -1.2503   -1.1809 
 H                    -3.0538   -0.8955   -1.7229 
 H                    -2.768    -2.0055   -0.3668 
 C                    -2.5548    0.0693    0.1243 
 C                    -3.92      0.2121    0.7451 
 H                    -3.9762    1.0594    1.4366 
 H                    -4.6748    0.3678   -0.0327 
 H                    -4.1787   -0.6921    1.3058 
 C                    -1.5597    0.917     0.4507 
 H                    -1.764     1.7013    1.1797 
 C                    -0.1561    0.939    -0.0933 
 H                    -0.0894    0.4187   -1.0545 
 H                     0.1041    1.9837   -0.306 
 
 ITRead=  0  0  0  0  0  0  0  0  0  0  0  0  0  0  0  0  0  0  0  0
 ITRead=  0  0  0  0  0  0  0  0
 MicOpt= -1 -1 -1 -1 -1 -1 -1 -1 -1 -1 -1 -1 -1 -1 -1 -1 -1 -1 -1 -1
 MicOpt= -1 -1 -1 -1 -1 -1 -1 -1
 NAtoms=     28 NQM=       28 NQMF=       0 NMMI=      0 NMMIF=      0
                NMic=       0 NMicF=      0.
                    Isotopes and Nuclear Properties:
 (Nuclear quadrupole moments (NQMom) in fm**2, nuclear magnetic moments (NMagM)
  in nuclear magnetons)

  Atom         1           2           3           4           5           6           7           8           9          10
 IAtWgt=          12           1           1          12          12           1           1           1          12           1
 AtmWgt=  12.0000000   1.0078250   1.0078250  12.0000000  12.0000000   1.0078250   1.0078250   1.0078250  12.0000000   1.0078250
 NucSpn=           0           1           1           0           0           1           1           1           0           1
 AtZEff=  -0.0000000  -0.0000000  -0.0000000  -0.0000000  -0.0000000  -0.0000000  -0.0000000  -0.0000000  -0.0000000  -0.0000000
 NQMom=    0.0000000   0.0000000   0.0000000   0.0000000   0.0000000   0.0000000   0.0000000   0.0000000   0.0000000   0.0000000
 NMagM=    0.0000000   2.7928460   2.7928460   0.0000000   0.0000000   2.7928460   2.7928460   2.7928460   0.0000000   2.7928460
 AtZNuc=   6.0000000   1.0000000   1.0000000   6.0000000   6.0000000   1.0000000   1.0000000   1.0000000   6.0000000   1.0000000

  Atom        11          12          13          14          15          16          17          18          19          20
 IAtWgt=          12           1           1           1          12           1           1           1          12          12
 AtmWgt=  12.0000000   1.0078250   1.0078250   1.0078250  12.0000000   1.0078250   1.0078250   1.0078250  12.0000000  12.0000000
 NucSpn=           0           1           1           1           0           1           1           1           0           0
 AtZEff=  -0.0000000  -0.0000000  -0.0000000  -0.0000000  -0.0000000  -0.0000000  -0.0000000  -0.0000000  -0.0000000  -0.0000000
 NQMom=    0.0000000   0.0000000   0.0000000   0.0000000   0.0000000   0.0000000   0.0000000   0.0000000   0.0000000   0.0000000
 NMagM=    0.0000000   2.7928460   2.7928460   2.7928460   0.0000000   2.7928460   2.7928460   2.7928460   0.0000000   0.0000000
 AtZNuc=   6.0000000   1.0000000   1.0000000   1.0000000   6.0000000   1.0000000   1.0000000   1.0000000   6.0000000   6.0000000

  Atom        21          22          23          24          25          26          27          28
 IAtWgt=           1           1           1          12           1          12           1           1
 AtmWgt=   1.0078250   1.0078250   1.0078250  12.0000000   1.0078250  12.0000000   1.0078250   1.0078250
 NucSpn=           1           1           1           0           1           0           1           1
 AtZEff=  -0.0000000  -0.0000000  -0.0000000  -0.0000000  -0.0000000  -0.0000000  -0.0000000  -0.0000000
 NQMom=    0.0000000   0.0000000   0.0000000   0.0000000   0.0000000   0.0000000   0.0000000   0.0000000
 NMagM=    2.7928460   2.7928460   2.7928460   0.0000000   2.7928460   0.0000000   2.7928460   2.7928460
 AtZNuc=   1.0000000   1.0000000   1.0000000   6.0000000   1.0000000   6.0000000   1.0000000   1.0000000
 Leave Link  101 at Fri Sep 17 15:58:05 2021, MaxMem=   524288000 cpu:               0.1 elap:               0.1
 (Enter /opt/gaussian/g16_legacy/l103.exe)

 GradGradGradGradGradGradGradGradGradGradGradGradGradGradGradGradGradGrad
 Berny optimization.
 Initialization pass.
                           ----------------------------
                           !    Initial Parameters    !
                           ! (Angstroms and Degrees)  !
 --------------------------                            --------------------------
 ! Name  Definition              Value          Derivative Info.                !
 --------------------------------------------------------------------------------
 ! R1    R(1,2)                  1.0966         estimate D2E/DX2                !
 ! R2    R(1,3)                  1.0983         estimate D2E/DX2                !
 ! R3    R(1,4)                  1.5148         estimate D2E/DX2                !
 ! R4    R(1,26)                 1.532          estimate D2E/DX2                !
 ! R5    R(4,5)                  1.5072         estimate D2E/DX2                !
 ! R6    R(4,9)                  1.3478         estimate D2E/DX2                !
 ! R7    R(5,6)                  1.0949         estimate D2E/DX2                !
 ! R8    R(5,7)                  1.0945         estimate D2E/DX2                !
 ! R9    R(5,8)                  1.0951         estimate D2E/DX2                !
 ! R10   R(9,10)                 1.0897         estimate D2E/DX2                !
 ! R11   R(9,11)                 1.496          estimate D2E/DX2                !
 ! R12   R(11,12)                1.0941         estimate D2E/DX2                !
 ! R13   R(11,13)                1.0922         estimate D2E/DX2                !
 ! R14   R(11,14)                1.0949         estimate D2E/DX2                !
 ! R15   R(15,16)                1.0923         estimate D2E/DX2                !
 ! R16   R(15,17)                1.0949         estimate D2E/DX2                !
 ! R17   R(15,18)                1.0954         estimate D2E/DX2                !
 ! R18   R(15,19)                1.5039         estimate D2E/DX2                !
 ! R19   R(19,20)                1.5065         estimate D2E/DX2                !
 ! R20   R(19,24)                1.3474         estimate D2E/DX2                !
 ! R21   R(20,21)                1.0951         estimate D2E/DX2                !
 ! R22   R(20,22)                1.095          estimate D2E/DX2                !
 ! R23   R(20,23)                1.0949         estimate D2E/DX2                !
 ! R24   R(24,25)                1.0901         estimate D2E/DX2                !
 ! R25   R(24,26)                1.5055         estimate D2E/DX2                !
 ! R26   R(26,27)                1.095          estimate D2E/DX2                !
 ! R27   R(26,28)                1.0974         estimate D2E/DX2                !
 ! A1    A(2,1,3)              104.8423         estimate D2E/DX2                !
 ! A2    A(2,1,4)              110.5871         estimate D2E/DX2                !
 ! A3    A(2,1,26)             109.9125         estimate D2E/DX2                !
 ! A4    A(3,1,4)              109.0176         estimate D2E/DX2                !
 ! A5    A(3,1,26)             110.011          estimate D2E/DX2                !
 ! A6    A(4,1,26)             112.2092         estimate D2E/DX2                !
 ! A7    A(1,4,5)              115.0649         estimate D2E/DX2                !
 ! A8    A(1,4,9)              124.3723         estimate D2E/DX2                !
 ! A9    A(5,4,9)              120.5523         estimate D2E/DX2                !
 ! A10   A(4,5,6)              110.2834         estimate D2E/DX2                !
 ! A11   A(4,5,7)              110.47           estimate D2E/DX2                !
 ! A12   A(4,5,8)              112.2545         estimate D2E/DX2                !
 ! A13   A(6,5,7)              108.5716         estimate D2E/DX2                !
 ! A14   A(6,5,8)              107.5836         estimate D2E/DX2                !
 ! A15   A(7,5,8)              107.5431         estimate D2E/DX2                !
 ! A16   A(4,9,10)             118.5819         estimate D2E/DX2                !
 ! A17   A(4,9,11)             127.4906         estimate D2E/DX2                !
 ! A18   A(10,9,11)            113.9197         estimate D2E/DX2                !
 ! A19   A(9,11,12)            109.8497         estimate D2E/DX2                !
 ! A20   A(9,11,13)            113.5171         estimate D2E/DX2                !
 ! A21   A(9,11,14)            109.4321         estimate D2E/DX2                !
 ! A22   A(12,11,13)           108.4595         estimate D2E/DX2                !
 ! A23   A(12,11,14)           108.1262         estimate D2E/DX2                !
 ! A24   A(13,11,14)           107.2946         estimate D2E/DX2                !
 ! A25   A(16,15,17)           107.9673         estimate D2E/DX2                !
 ! A26   A(16,15,18)           106.781          estimate D2E/DX2                !
 ! A27   A(16,15,19)           113.4291         estimate D2E/DX2                !
 ! A28   A(17,15,18)           108.3277         estimate D2E/DX2                !
 ! A29   A(17,15,19)           110.0993         estimate D2E/DX2                !
 ! A30   A(18,15,19)           110.059          estimate D2E/DX2                !
 ! A31   A(15,19,20)           114.2858         estimate D2E/DX2                !
 ! A32   A(15,19,24)           125.0594         estimate D2E/DX2                !
 ! A33   A(20,19,24)           120.6519         estimate D2E/DX2                !
 ! A34   A(19,20,21)           112.337          estimate D2E/DX2                !
 ! A35   A(19,20,22)           110.2088         estimate D2E/DX2                !
 ! A36   A(19,20,23)           110.2948         estimate D2E/DX2                !
 ! A37   A(21,20,22)           107.6469         estimate D2E/DX2                !
 ! A38   A(21,20,23)           107.6654         estimate D2E/DX2                !
 ! A39   A(22,20,23)           108.5609         estimate D2E/DX2                !
 ! A40   A(19,24,25)           118.4412         estimate D2E/DX2                !
 ! A41   A(19,24,26)           127.6062         estimate D2E/DX2                !
 ! A42   A(25,24,26)           113.9453         estimate D2E/DX2                !
 ! A43   A(1,26,24)            111.4144         estimate D2E/DX2                !
 ! A44   A(1,26,27)            110.3472         estimate D2E/DX2                !
 ! A45   A(1,26,28)            110.0559         estimate D2E/DX2                !
 ! A46   A(24,26,27)           111.5326         estimate D2E/DX2                !
 ! A47   A(24,26,28)           107.7581         estimate D2E/DX2                !
 ! A48   A(27,26,28)           105.5304         estimate D2E/DX2                !
 ! D1    D(2,1,4,5)           -151.41           estimate D2E/DX2                !
 ! D2    D(2,1,4,9)             27.4133         estimate D2E/DX2                !
 ! D3    D(3,1,4,5)            -36.645          estimate D2E/DX2                !
 ! D4    D(3,1,4,9)            142.1782         estimate D2E/DX2                !
 ! D5    D(26,1,4,5)            85.4744         estimate D2E/DX2                !
 ! D6    D(26,1,4,9)           -95.7024         estimate D2E/DX2                !
 ! D7    D(2,1,26,24)           56.9335         estimate D2E/DX2                !
 ! D8    D(2,1,26,27)          -67.5331         estimate D2E/DX2                !
 ! D9    D(2,1,26,28)          176.4019         estimate D2E/DX2                !
 ! D10   D(3,1,26,24)          -58.0197         estimate D2E/DX2                !
 ! D11   D(3,1,26,27)          177.5137         estimate D2E/DX2                !
 ! D12   D(3,1,26,28)           61.4487         estimate D2E/DX2                !
 ! D13   D(4,1,26,24)         -179.5721         estimate D2E/DX2                !
 ! D14   D(4,1,26,27)           55.9613         estimate D2E/DX2                !
 ! D15   D(4,1,26,28)          -60.1037         estimate D2E/DX2                !
 ! D16   D(1,4,5,6)             59.4925         estimate D2E/DX2                !
 ! D17   D(1,4,5,7)            -60.5334         estimate D2E/DX2                !
 ! D18   D(1,4,5,8)            179.4412         estimate D2E/DX2                !
 ! D19   D(9,4,5,6)           -119.3796         estimate D2E/DX2                !
 ! D20   D(9,4,5,7)            120.5945         estimate D2E/DX2                !
 ! D21   D(9,4,5,8)              0.5691         estimate D2E/DX2                !
 ! D22   D(1,4,9,10)          -178.5926         estimate D2E/DX2                !
 ! D23   D(1,4,9,11)             2.4841         estimate D2E/DX2                !
 ! D24   D(5,4,9,10)             0.1696         estimate D2E/DX2                !
 ! D25   D(5,4,9,11)          -178.7537         estimate D2E/DX2                !
 ! D26   D(4,9,11,12)         -113.6858         estimate D2E/DX2                !
 ! D27   D(4,9,11,13)            7.9303         estimate D2E/DX2                !
 ! D28   D(4,9,11,14)          127.7529         estimate D2E/DX2                !
 ! D29   D(10,9,11,12)          67.3485         estimate D2E/DX2                !
 ! D30   D(10,9,11,13)        -171.0354         estimate D2E/DX2                !
 ! D31   D(10,9,11,14)         -51.2127         estimate D2E/DX2                !
 ! D32   D(16,15,19,20)       -172.3384         estimate D2E/DX2                !
 ! D33   D(16,15,19,24)          7.0473         estimate D2E/DX2                !
 ! D34   D(17,15,19,20)         66.5592         estimate D2E/DX2                !
 ! D35   D(17,15,19,24)       -114.0551         estimate D2E/DX2                !
 ! D36   D(18,15,19,20)        -52.7869         estimate D2E/DX2                !
 ! D37   D(18,15,19,24)        126.5988         estimate D2E/DX2                !
 ! D38   D(15,19,20,21)       -179.6315         estimate D2E/DX2                !
 ! D39   D(15,19,20,22)        -59.5992         estimate D2E/DX2                !
 ! D40   D(15,19,20,23)         60.2535         estimate D2E/DX2                !
 ! D41   D(24,19,20,21)          0.953          estimate D2E/DX2                !
 ! D42   D(24,19,20,22)        120.9853         estimate D2E/DX2                !
 ! D43   D(24,19,20,23)       -119.162          estimate D2E/DX2                !
 ! D44   D(15,19,24,25)       -178.8266         estimate D2E/DX2                !
 ! D45   D(15,19,24,26)          2.22           estimate D2E/DX2                !
 ! D46   D(20,19,24,25)          0.5225         estimate D2E/DX2                !
 ! D47   D(20,19,24,26)       -178.4308         estimate D2E/DX2                !
 ! D48   D(19,24,26,1)        -103.3675         estimate D2E/DX2                !
 ! D49   D(19,24,26,27)         20.4299         estimate D2E/DX2                !
 ! D50   D(19,24,26,28)        135.8088         estimate D2E/DX2                !
 ! D51   D(25,24,26,1)          77.6394         estimate D2E/DX2                !
 ! D52   D(25,24,26,27)       -158.5631         estimate D2E/DX2                !
 ! D53   D(25,24,26,28)        -43.1843         estimate D2E/DX2                !
 --------------------------------------------------------------------------------
 Trust Radius=3.00D-01 FncErr=1.00D-07 GrdErr=1.00D-07 EigMax=2.50D+02 EigMin=1.00D-04
 Number of steps in this run=    138 maximum allowed number of steps=    168.
 GradGradGradGradGradGradGradGradGradGradGradGradGradGradGradGradGradGrad

 Leave Link  103 at Fri Sep 17 15:58:05 2021, MaxMem=   524288000 cpu:               0.0 elap:               0.1
 (Enter /opt/gaussian/g16_legacy/l202.exe)
                          Input orientation:                          
 ---------------------------------------------------------------------
 Center     Atomic      Atomic             Coordinates (Angstroms)
 Number     Number       Type             X           Y           Z
 ---------------------------------------------------------------------
      1          6           0        0.840400    0.342300    0.905700
      2          1           0        0.541700   -0.680300    1.165600
      3          1           0        0.800300    0.896500    1.853100
      4          6           0        2.261000    0.365000    0.380300
      5          6           0        3.009600    1.651200    0.619000
      6          1           0        3.070900    1.861200    1.691800
      7          1           0        2.500600    2.487000    0.128700
      8          1           0        4.032700    1.613900    0.230200
      9          6           0        2.860100   -0.671700   -0.238500
     10          1           0        3.895700   -0.559900   -0.558700
     11          6           0        2.260900   -2.000300   -0.576000
     12          1           0        2.748900   -2.786900    0.007300
     13          1           0        1.185100   -2.052000   -0.394400
     14          1           0        2.422400   -2.213600   -1.637700
     15          6           0       -2.431100   -1.077300   -0.840900
     16          1           0       -1.407600   -1.250300   -1.180900
     17          1           0       -3.053800   -0.895500   -1.722900
     18          1           0       -2.768000   -2.005500   -0.366800
     19          6           0       -2.554800    0.069300    0.124300
     20          6           0       -3.920000    0.212100    0.745100
     21          1           0       -3.976200    1.059400    1.436600
     22          1           0       -4.674800    0.367800   -0.032700
     23          1           0       -4.178700   -0.692100    1.305800
     24          6           0       -1.559700    0.917000    0.450700
     25          1           0       -1.764000    1.701300    1.179700
     26          6           0       -0.156100    0.939000   -0.093300
     27          1           0       -0.089400    0.418700   -1.054500
     28          1           0        0.104100    1.983700   -0.306000
 ---------------------------------------------------------------------
                    Distance matrix (angstroms):
                    1          2          3          4          5
     1  C    0.000000
     2  H    1.096577   0.000000
     3  H    1.098323   1.739491   0.000000
     4  C    1.514815   2.159940   2.141326   0.000000
     5  C    2.549675   3.438778   2.640754   1.507213   0.000000
     6  H    2.810719   3.623943   2.472304   2.148158   1.094878
     7  H    2.821300   3.865778   2.897286   2.150255   1.094549
     8  H    3.502006   4.280819   3.687394   2.172833   1.095121
     9  C    2.533096   2.710452   3.328185   1.347806   2.480629
    10  H    3.506179   3.773198   4.185616   2.099858   2.657276
    11  C    3.114648   2.780507   4.052817   2.551304   3.914336
    12  H    3.773776   3.263611   4.557571   3.211176   4.487636
    13  H    2.746225   2.174655   3.727329   2.756739   4.250820
    14  H    3.937541   3.707632   4.948698   3.278346   4.513776
    15  C    3.970968   3.608489   4.647092   5.058395   6.259172
    16  H    3.455977   3.103342   4.323046   4.301763   5.583010
    17  H    4.858650   4.617073   5.554559   5.853154   6.981045
    18  H    4.489095   3.880531   5.107086   5.609659   6.908250
    19  C    3.494638   3.351793   3.863898   4.831656   5.806004
    20  C    4.764887   4.569460   4.896662   6.193643   7.078578
    21  H    4.898543   4.848857   4.797391   6.364010   7.058335
    22  H    5.594522   5.454018   5.814850   6.948086   7.818045
    23  H    5.140178   4.722496   5.254867   6.591187   7.591733
    24  C    2.509539   2.734654   2.745313   3.861011   4.630969
    25  H    2.950399   3.314886   2.770705   4.315711   4.806678
    26  C    1.532013   2.166538   2.169097   2.529060   3.322086
    27  H    2.170887   2.556351   3.077986   2.754254   3.731415
    28  H    2.168997   3.074735   2.515633   2.782699   3.067264
                    6          7          8          9         10
     6  H    0.000000
     7  H    1.777681   0.000000
     8  H    1.767057   1.766334   0.000000
     9  C    3.191563   3.200228   2.611252   0.000000
    10  H    3.406871   3.420880   2.316579   1.089722   0.000000
    11  C    4.550846   4.548617   4.105079   1.496036   2.178904
    12  H    4.954398   5.281137   4.589648   2.132335   2.568080
    13  H    4.818880   4.754650   4.683778   2.176042   3.098501
    14  H    5.301898   5.022143   4.553227   2.127627   2.463651
    15  C    6.732114   6.161658   7.083115   5.340805   6.354191
    16  H    6.163668   5.563856   6.308067   4.408646   5.384123
    17  H    7.534688   6.761737   7.767250   6.101454   7.054328
    18  H    7.299449   6.941630   7.726965   5.785412   6.821399
    19  C    6.108720   5.603781   6.766990   5.477394   6.517003
    20  C    7.244892   6.839534   8.091700   6.907845   7.961221
    21  H    7.097156   6.759999   8.118211   7.248287   8.280710
    22  H    8.074652   7.483544   8.800139   7.609049   8.636595
    23  H    7.695780   7.490346   8.596606   7.206246   8.287929
    24  C    4.886133   4.365160   5.639967   4.746957   5.741212
    25  H    4.864573   4.461921   5.874600   5.387460   6.337765
    26  C    3.801390   3.082798   4.255137   3.422411   4.345156
    27  H    4.428371   3.519365   4.480030   3.248750   4.133340
    28  H    3.578842   2.487064   3.982231   3.827694   4.572744
                   11         12         13         14         15
    11  C    0.000000
    12  H    1.094131   0.000000
    13  H    1.092244   1.773954   0.000000
    14  H    1.094891   1.772371   1.761483   0.000000
    15  C    4.789255   5.520378   3.771777   5.048022   0.000000
    16  H    3.792927   4.587968   2.825491   3.975615   1.092283
    17  H    5.548153   6.343683   4.590281   5.633242   1.094866
    18  H    5.033252   5.584507   3.953470   5.347779   1.095366
    19  C    5.288159   6.025015   4.330798   5.752286   1.503863
    20  C    6.696532   7.349325   5.699707   7.196374   2.528789
    21  H    7.232824   7.878064   6.298602   7.817028   3.484225
    22  H    7.348946   8.066291   6.350172   7.720745   2.788493
    23  H    6.835277   7.352954   5.788813   7.386046   2.794782
    24  C    4.915459   5.699080   4.130748   5.478977   2.530771
    25  H    5.743182   6.471841   5.026156   6.386715   3.499781
    26  C    3.835932   4.725619   3.291741   4.355769   3.130495
    27  H    3.406528   4.411263   2.857349   3.684870   2.786970
    28  H    4.538385   5.463675   4.178905   4.976471   4.010371
                   16         17         18         19         20
    16  H    0.000000
    17  H    1.769074   0.000000
    18  H    1.756068   1.775609   0.000000
    19  C    2.181962   2.142892   2.142762   0.000000
    20  C    3.487154   2.840441   2.735174   1.506504   0.000000
    21  H    4.334020   3.828171   3.755744   2.173202   1.095102
    22  H    3.822461   2.660892   3.062689   2.146660   1.094960
    23  H    3.764872   3.237251   2.551996   2.147725   1.094937
    24  C    2.717065   3.200317   3.266390   1.347352   2.480841
    25  H    3.796234   4.102687   4.140054   2.098251   2.656112
    26  C    2.746299   3.797058   3.945492   2.560760   3.924059
    27  H    2.130537   3.310823   3.677577   2.754968   4.237303
    28  H    3.675519   4.502192   4.915930   3.304517   4.520703
                   21         22         23         24         25
    21  H    0.000000
    22  H    1.767822   0.000000
    23  H    1.768012   1.777944   0.000000
    24  C    2.613761   3.199866   3.190542   0.000000
    25  H    2.317728   3.423579   3.402211   1.090094   0.000000
    26  C    4.116826   4.555062   4.560623   1.505494   2.187915
    27  H    4.660825   4.698144   4.850491   2.162339   3.072621
    28  H    4.532089   5.052100   5.300960   2.116288   2.403508
                   26         27         28
    26  C    0.000000
    27  H    1.095019   0.000000
    28  H    1.097426   1.745543   0.000000
 Stoichiometry    C10H18
 Framework group  C1[X(C10H18)]
 Deg. of freedom    78
 Full point group                 C1      NOp   1
 Largest Abelian subgroup         C1      NOp   1
 Largest concise Abelian subgroup C1      NOp   1
                         Standard orientation:                         
 ---------------------------------------------------------------------
 Center     Atomic      Atomic             Coordinates (Angstroms)
 Number     Number       Type             X           Y           Z
 ---------------------------------------------------------------------
      1          6           0       -0.793812   -0.586538    0.589168
      2          1           0       -0.484637    0.235233    1.246117
      3          1           0       -0.745999   -1.484313    1.220061
      4          6           0       -2.220904   -0.386944    0.122011
      5          6           0       -2.975671   -1.655022   -0.184575
      6          1           0       -3.025245   -2.291670    0.704795
      7          1           0       -2.478733   -2.212266   -0.984930
      8          1           0       -4.003192   -1.458151   -0.508200
      9          6           0       -2.820165    0.813962   -0.001653
     10          1           0       -3.860404    0.846726   -0.324646
     11          6           0       -2.215697    2.161861    0.234803
     12          1           0       -2.690843    2.635685    1.099007
     13          1           0       -1.137399    2.131958    0.406200
     14          1           0       -2.388740    2.797206   -0.639942
     15          6           0        2.465972    1.425896   -0.456064
     16          1           0        1.439622    1.725926   -0.678927
     17          1           0        3.076442    1.626116   -1.342612
     18          1           0        2.815308    2.072754    0.355950
     19          6           0        2.593365   -0.018240   -0.056255
     20          6           0        3.965056   -0.407934    0.429705
     21          1           0        4.023721   -1.466018    0.705867
     22          1           0        4.709084   -0.227446   -0.353101
     23          1           0        4.237096    0.181222    1.311622
     24          6           0        1.596334   -0.923553   -0.097424
     25          1           0        1.803996   -1.940116    0.236916
     26          6           0        0.186016   -0.715617   -0.581447
     27          1           0        0.111194    0.157092   -1.238598
     28          1           0       -0.084238   -1.577154   -1.205194
 ---------------------------------------------------------------------
 Rotational constants (GHZ):           2.2181259           0.5802388           0.4854292
 Leave Link  202 at Fri Sep 17 15:58:05 2021, MaxMem=   524288000 cpu:               0.0 elap:               0.1
 (Enter /opt/gaussian/g16_legacy/l301.exe)
 Standard basis: 6-31G(d,p) (6D, 7F)
 Ernie: Thresh=  0.10000D-02 Tol=  0.10000D-05 Strict=F.
 There are   240 symmetry adapted cartesian basis functions of A   symmetry.
 There are   240 symmetry adapted basis functions of A   symmetry.
   240 basis functions,   406 primitive gaussians,   240 cartesian basis functions
    39 alpha electrons       39 beta electrons
       nuclear repulsion energy       516.4381563107 Hartrees.
 IExCor=    0 DFT=F Ex=HF Corr=None ExCW=0 ScaHFX=  1.000000
 ScaDFX=  1.000000  1.000000  1.000000  1.000000 ScalE2=  1.000000  1.000000
 IRadAn=      5 IRanWt=     -1 IRanGd=            0 ICorTp=0 IEmpDi=  4
 NAtoms=   28 NActive=   28 NUniq=   28 SFac= 1.00D+00 NAtFMM=   60 NAOKFM=F Big=F
 Integral buffers will be    131072 words long.
 Raffenetti 1 integral format.
 Two-electron integral symmetry is turned on.
 Leave Link  301 at Fri Sep 17 15:58:05 2021, MaxMem=   524288000 cpu:               0.0 elap:               0.1
 (Enter /opt/gaussian/g16_legacy/l302.exe)
 NPDir=0 NMtPBC=     1 NCelOv=     1 NCel=       1 NClECP=     1 NCelD=      1
         NCelK=      1 NCelE2=     1 NClLst=     1 CellRange=     0.0.
 One-electron integrals computed using PRISM.
 One-electron integral symmetry used in STVInt
 NBasis=   240 RedAO= T EigKep=  2.10D-03  NBF=   240
 NBsUse=   240 1.00D-06 EigRej= -1.00D+00 NBFU=   240
 Leave Link  302 at Fri Sep 17 15:58:06 2021, MaxMem=   524288000 cpu:               0.2 elap:               0.4
 (Enter /opt/gaussian/g16_legacy/l303.exe)
 DipDrv:  MaxL=1.
 Leave Link  303 at Fri Sep 17 15:58:06 2021, MaxMem=   524288000 cpu:               0.0 elap:               0.1
 (Enter /opt/gaussian/g16_legacy/l401.exe)
 ExpMin= 1.61D-01 ExpMax= 3.05D+03 ExpMxC= 4.57D+02 IAcc=3 IRadAn=         5 AccDes= 0.00D+00
 Harris functional with IExCor=  205 and IRadAn=       5 diagonalized for initial guess.
 HarFok:  IExCor=  205 AccDes= 0.00D+00 IRadAn=         5 IDoV= 1 UseB2=F ITyADJ=14
 ICtDFT=  3500011 ScaDFX=  1.000000  1.000000  1.000000  1.000000
 FoFCou: FMM=F IPFlag=           0 FMFlag=      100000 FMFlg1=           0
         NFxFlg=           0 DoJE=T BraDBF=F KetDBF=T FulRan=T
         wScrn=  0.000000 ICntrl=       500 IOpCl=  0 I1Cent=   200000004 NGrid=           0
         NMat0=    1 NMatS0=      1 NMatT0=    0 NMatD0=    1 NMtDS0=    0 NMtDT0=    0
 Petite list used in FoFCou.
 Harris En= -390.109910511822    
 JPrj=0 DoOrth=F DoCkMO=F.
 Leave Link  401 at Fri Sep 17 15:58:13 2021, MaxMem=   524288000 cpu:               6.6 elap:               6.8
 (Enter /opt/gaussian/g16_legacy/l502.exe)
 Keep R1 ints in memory in canonical form, NReq=425198025.
 FoFCou: FMM=F IPFlag=           0 FMFlag=           0 FMFlg1=           0
         NFxFlg=           0 DoJE=F BraDBF=F KetDBF=F FulRan=T
         wScrn=  0.000000 ICntrl=       600 IOpCl=  0 I1Cent=           0 NGrid=           0
         NMat0=    1 NMatS0=  28920 NMatT0=    0 NMatD0=    1 NMtDS0=    0 NMtDT0=    0
 Symmetry not used in FoFCou.
 Two-electron integral symmetry not used.
 Closed shell SCF:
 Using DIIS extrapolation, IDIIS=  1040.
 NGot=   524288000 LenX=   105970886 LenY=   105912845
 Requested convergence on RMS density matrix=1.00D-08 within 128 cycles.
 Requested convergence on MAX density matrix=1.00D-06.
 Requested convergence on             energy=1.00D-06.
 No special actions if energy rises.

 Cycle   1  Pass 1  IDiag  1:
 E= -388.533161512450    
 DIIS: error= 5.21D-02 at cycle   1 NSaved=   1.
 NSaved= 1 IEnMin= 1 EnMin= -388.533161512450     IErMin= 1 ErrMin= 5.21D-02
 ErrMax= 5.21D-02  0.00D+00 EMaxC= 1.00D-01 BMatC= 8.07D-01 BMatP= 8.07D-01
 IDIUse=3 WtCom= 4.79D-01 WtEn= 5.21D-01
 Coeff-Com:  0.100D+01
 Coeff-En:   0.100D+01
 Coeff:      0.100D+01
 Gap=     0.508 Goal=   None    Shift=    0.000
 GapD=    0.508 DampG=2.000 DampE=0.500 DampFc=1.0000 IDamp=-1.
 RMSDP=4.00D-03 MaxDP=1.14D-01              OVMax= 1.33D-01

 Cycle   2  Pass 1  IDiag  1:
 E= -389.073869350990     Delta-E=       -0.540707838540 Rises=F Damp=F
 DIIS: error= 1.59D-02 at cycle   2 NSaved=   2.
 NSaved= 2 IEnMin= 2 EnMin= -389.073869350990     IErMin= 2 ErrMin= 1.59D-02
 ErrMax= 1.59D-02  0.00D+00 EMaxC= 1.00D-01 BMatC= 8.66D-02 BMatP= 8.07D-01
 IDIUse=3 WtCom= 8.41D-01 WtEn= 1.59D-01
 Coeff-Com:  0.183D+00 0.817D+00
 Coeff-En:   0.000D+00 0.100D+01
 Coeff:      0.154D+00 0.846D+00
 Gap=     0.549 Goal=   None    Shift=    0.000
 RMSDP=1.63D-03 MaxDP=3.04D-02 DE=-5.41D-01 OVMax= 4.61D-02

 Cycle   3  Pass 1  IDiag  1:
 E= -389.151436265896     Delta-E=       -0.077566914906 Rises=F Damp=F
 DIIS: error= 3.43D-03 at cycle   3 NSaved=   3.
 NSaved= 3 IEnMin= 3 EnMin= -389.151436265896     IErMin= 3 ErrMin= 3.43D-03
 ErrMax= 3.43D-03  0.00D+00 EMaxC= 1.00D-01 BMatC= 3.14D-03 BMatP= 8.66D-02
 IDIUse=3 WtCom= 9.66D-01 WtEn= 3.43D-02
 Coeff-Com: -0.245D-01 0.106D+00 0.919D+00
 Coeff-En:   0.000D+00 0.000D+00 0.100D+01
 Coeff:     -0.236D-01 0.102D+00 0.921D+00
 Gap=     0.499 Goal=   None    Shift=    0.000
 RMSDP=2.59D-04 MaxDP=7.14D-03 DE=-7.76D-02 OVMax= 1.01D-02

 Cycle   4  Pass 1  IDiag  1:
 E= -389.155062116585     Delta-E=       -0.003625850689 Rises=F Damp=F
 DIIS: error= 5.31D-04 at cycle   4 NSaved=   4.
 NSaved= 4 IEnMin= 4 EnMin= -389.155062116585     IErMin= 4 ErrMin= 5.31D-04
 ErrMax= 5.31D-04  0.00D+00 EMaxC= 1.00D-01 BMatC= 9.28D-05 BMatP= 3.14D-03
 IDIUse=3 WtCom= 9.95D-01 WtEn= 5.31D-03
 Coeff-Com: -0.424D-02-0.189D-02 0.949D-01 0.911D+00
 Coeff-En:   0.000D+00 0.000D+00 0.000D+00 0.100D+01
 Coeff:     -0.421D-02-0.188D-02 0.944D-01 0.912D+00
 Gap=     0.499 Goal=   None    Shift=    0.000
 RMSDP=7.39D-05 MaxDP=1.49D-03 DE=-3.63D-03 OVMax= 3.14D-03

 Cycle   5  Pass 1  IDiag  1:
 E= -389.155186447672     Delta-E=       -0.000124331087 Rises=F Damp=F
 DIIS: error= 1.63D-04 at cycle   5 NSaved=   5.
 NSaved= 5 IEnMin= 5 EnMin= -389.155186447672     IErMin= 5 ErrMin= 1.63D-04
 ErrMax= 1.63D-04  0.00D+00 EMaxC= 1.00D-01 BMatC= 1.60D-05 BMatP= 9.28D-05
 IDIUse=3 WtCom= 9.98D-01 WtEn= 1.63D-03
 Coeff-Com:  0.241D-02-0.152D-01-0.102D+00 0.176D+00 0.939D+00
 Coeff-En:   0.000D+00 0.000D+00 0.000D+00 0.000D+00 0.100D+01
 Coeff:      0.241D-02-0.152D-01-0.102D+00 0.175D+00 0.939D+00
 Gap=     0.500 Goal=   None    Shift=    0.000
 RMSDP=3.00D-05 MaxDP=6.56D-04 DE=-1.24D-04 OVMax= 9.23D-04

 Cycle   6  Pass 1  IDiag  1:
 E= -389.155207927683     Delta-E=       -0.000021480011 Rises=F Damp=F
 DIIS: error= 3.58D-05 at cycle   6 NSaved=   6.
 NSaved= 6 IEnMin= 6 EnMin= -389.155207927683     IErMin= 6 ErrMin= 3.58D-05
 ErrMax= 3.58D-05  0.00D+00 EMaxC= 1.00D-01 BMatC= 5.50D-07 BMatP= 1.60D-05
 IDIUse=1 WtCom= 1.00D+00 WtEn= 0.00D+00
 Coeff-Com:  0.720D-03-0.335D-02-0.261D-01-0.433D-02 0.177D+00 0.856D+00
 Coeff:      0.720D-03-0.335D-02-0.261D-01-0.433D-02 0.177D+00 0.856D+00
 Gap=     0.500 Goal=   None    Shift=    0.000
 RMSDP=5.30D-06 MaxDP=1.61D-04 DE=-2.15D-05 OVMax= 3.23D-04

 Cycle   7  Pass 1  IDiag  1:
 E= -389.155208768675     Delta-E=       -0.000000840992 Rises=F Damp=F
 DIIS: error= 1.03D-05 at cycle   7 NSaved=   7.
 NSaved= 7 IEnMin= 7 EnMin= -389.155208768675     IErMin= 7 ErrMin= 1.03D-05
 ErrMax= 1.03D-05  0.00D+00 EMaxC= 1.00D-01 BMatC= 5.44D-08 BMatP= 5.50D-07
 IDIUse=1 WtCom= 1.00D+00 WtEn= 0.00D+00
 Coeff-Com: -0.494D-04 0.463D-03 0.301D-02-0.105D-01-0.468D-01 0.145D+00
 Coeff-Com:  0.909D+00
 Coeff:     -0.494D-04 0.463D-03 0.301D-02-0.105D-01-0.468D-01 0.145D+00
 Coeff:      0.909D+00
 Gap=     0.500 Goal=   None    Shift=    0.000
 RMSDP=1.71D-06 MaxDP=4.10D-05 DE=-8.41D-07 OVMax= 8.42D-05

 Cycle   8  Pass 1  IDiag  1:
 E= -389.155208857584     Delta-E=       -0.000000088908 Rises=F Damp=F
 DIIS: error= 3.51D-06 at cycle   8 NSaved=   8.
 NSaved= 8 IEnMin= 8 EnMin= -389.155208857584     IErMin= 8 ErrMin= 3.51D-06
 ErrMax= 3.51D-06  0.00D+00 EMaxC= 1.00D-01 BMatC= 5.09D-09 BMatP= 5.44D-08
 IDIUse=1 WtCom= 1.00D+00 WtEn= 0.00D+00
 Coeff-Com: -0.581D-04 0.249D-03 0.208D-02 0.315D-02-0.171D-01-0.804D-01
 Coeff-Com: -0.123D+00 0.121D+01
 Coeff:     -0.581D-04 0.249D-03 0.208D-02 0.315D-02-0.171D-01-0.804D-01
 Coeff:     -0.123D+00 0.121D+01
 Gap=     0.500 Goal=   None    Shift=    0.000
 RMSDP=7.85D-07 MaxDP=2.40D-05 DE=-8.89D-08 OVMax= 5.81D-05

 Cycle   9  Pass 1  IDiag  1:
 E= -389.155208873464     Delta-E=       -0.000000015881 Rises=F Damp=F
 DIIS: error= 1.46D-06 at cycle   9 NSaved=   9.
 NSaved= 9 IEnMin= 9 EnMin= -389.155208873464     IErMin= 9 ErrMin= 1.46D-06
 ErrMax= 1.46D-06  0.00D+00 EMaxC= 1.00D-01 BMatC= 7.38D-10 BMatP= 5.09D-09
 IDIUse=1 WtCom= 1.00D+00 WtEn= 0.00D+00
 Coeff-Com:  0.927D-05-0.689D-04-0.480D-03 0.144D-02 0.385D-02 0.747D-04
 Coeff-Com: -0.865D-01-0.120D+00 0.120D+01
 Coeff:      0.927D-05-0.689D-04-0.480D-03 0.144D-02 0.385D-02 0.747D-04
 Coeff:     -0.865D-01-0.120D+00 0.120D+01
 Gap=     0.500 Goal=   None    Shift=    0.000
 RMSDP=2.99D-07 MaxDP=1.24D-05 DE=-1.59D-08 OVMax= 2.71D-05

 Cycle  10  Pass 1  IDiag  1:
 E= -389.155208875878     Delta-E=       -0.000000002414 Rises=F Damp=F
 DIIS: error= 3.97D-07 at cycle  10 NSaved=  10.
 NSaved=10 IEnMin=10 EnMin= -389.155208875878     IErMin=10 ErrMin= 3.97D-07
 ErrMax= 3.97D-07  0.00D+00 EMaxC= 1.00D-01 BMatC= 1.21D-10 BMatP= 7.38D-10
 IDIUse=1 WtCom= 1.00D+00 WtEn= 0.00D+00
 Coeff-Com:  0.952D-05-0.464D-04-0.369D-03-0.135D-03 0.233D-02 0.142D-01
 Coeff-Com:  0.593D-02-0.211D+00 0.144D+00 0.105D+01
 Coeff:      0.952D-05-0.464D-04-0.369D-03-0.135D-03 0.233D-02 0.142D-01
 Coeff:      0.593D-02-0.211D+00 0.144D+00 0.105D+01
 Gap=     0.500 Goal=   None    Shift=    0.000
 RMSDP=1.24D-07 MaxDP=3.06D-06 DE=-2.41D-09 OVMax= 9.88D-06

 Cycle  11  Pass 1  IDiag  1:
 E= -389.155208876177     Delta-E=       -0.000000000299 Rises=F Damp=F
 DIIS: error= 1.55D-07 at cycle  11 NSaved=  11.
 NSaved=11 IEnMin=11 EnMin= -389.155208876177     IErMin=11 ErrMin= 1.55D-07
 ErrMax= 1.55D-07  0.00D+00 EMaxC= 1.00D-01 BMatC= 9.54D-12 BMatP= 1.21D-10
 IDIUse=1 WtCom= 1.00D+00 WtEn= 0.00D+00
 Coeff-Com:  0.396D-06 0.832D-06 0.953D-06-0.149D-03-0.305D-03 0.278D-02
 Coeff-Com:  0.110D-01-0.153D-01-0.107D+00 0.164D+00 0.945D+00
 Coeff:      0.396D-06 0.832D-06 0.953D-06-0.149D-03-0.305D-03 0.278D-02
 Coeff:      0.110D-01-0.153D-01-0.107D+00 0.164D+00 0.945D+00
 Gap=     0.500 Goal=   None    Shift=    0.000
 RMSDP=2.77D-08 MaxDP=1.16D-06 DE=-2.99D-10 OVMax= 2.51D-06

 Cycle  12  Pass 1  IDiag  1:
 E= -389.155208876230     Delta-E=       -0.000000000053 Rises=F Damp=F
 DIIS: error= 3.64D-08 at cycle  12 NSaved=  12.
 NSaved=12 IEnMin=12 EnMin= -389.155208876230     IErMin=12 ErrMin= 3.64D-08
 ErrMax= 3.64D-08  0.00D+00 EMaxC= 1.00D-01 BMatC= 1.17D-12 BMatP= 9.54D-12
 IDIUse=1 WtCom= 1.00D+00 WtEn= 0.00D+00
 Coeff-Com: -0.102D-05 0.547D-05 0.429D-04 0.323D-05-0.343D-03-0.126D-02
 Coeff-Com:  0.366D-03 0.217D-01-0.321D-01-0.113D+00 0.980D-01 0.103D+01
 Coeff:     -0.102D-05 0.547D-05 0.429D-04 0.323D-05-0.343D-03-0.126D-02
 Coeff:      0.366D-03 0.217D-01-0.321D-01-0.113D+00 0.980D-01 0.103D+01
 Gap=     0.500 Goal=   None    Shift=    0.000
 RMSDP=1.18D-08 MaxDP=3.33D-07 DE=-5.32D-11 OVMax= 8.46D-07

 Cycle  13  Pass 1  IDiag  1:
 E= -389.155208876228     Delta-E=        0.000000000002 Rises=F Damp=F
 DIIS: error= 1.06D-08 at cycle  13 NSaved=  13.
 NSaved=13 IEnMin=12 EnMin= -389.155208876230     IErMin=13 ErrMin= 1.06D-08
 ErrMax= 1.06D-08  0.00D+00 EMaxC= 1.00D-01 BMatC= 5.47D-14 BMatP= 1.17D-12
 IDIUse=1 WtCom= 1.00D+00 WtEn= 0.00D+00
 Coeff-Com: -0.122D-06 0.462D-06 0.389D-05 0.136D-04-0.170D-04-0.298D-03
 Coeff-Com: -0.849D-03 0.352D-02 0.516D-02-0.212D-01-0.612D-01 0.111D+00
 Coeff-Com:  0.964D+00
 Coeff:     -0.122D-06 0.462D-06 0.389D-05 0.136D-04-0.170D-04-0.298D-03
 Coeff:     -0.849D-03 0.352D-02 0.516D-02-0.212D-01-0.612D-01 0.111D+00
 Coeff:      0.964D+00
 Gap=     0.500 Goal=   None    Shift=    0.000
 RMSDP=2.13D-09 MaxDP=7.03D-08 DE= 2.05D-12 OVMax= 1.05D-07

 SCF Done:  E(RHF) =  -389.155208876     A.U. after   13 cycles
            NFock= 13  Conv=0.21D-08     -V/T= 2.0014
 KE= 3.886261278799D+02 PE=-1.937510243461D+03 EE= 6.432907503946D+02
 Leave Link  502 at Fri Sep 17 15:58:29 2021, MaxMem=   524288000 cpu:              16.0 elap:              16.2
 (Enter /opt/gaussian/g16_legacy/l801.exe)
 ExpMin= 1.61D-01 ExpMax= 3.05D+03 ExpMxC= 4.57D+02 IAcc=3 IRadAn=         5 AccDes= 0.00D+00
 HarFok:  IExCor=  205 AccDes= 0.00D+00 IRadAn=         5 IDoV=-2 UseB2=F ITyADJ=14
 ICtDFT= 12500011 ScaDFX=  1.000000  1.000000  1.000000  1.000000
 Largest valence mixing into a core orbital is  1.98D-04
 Largest core mixing into a valence orbital is  3.52D-05
 Range of M.O.s used for correlation:    11   240
 NBasis=   240 NAE=    39 NBE=    39 NFC=    10 NFV=     0
 NROrb=    230 NOA=    29 NOB=    29 NVA=   201 NVB=   201
 Leave Link  801 at Fri Sep 17 15:58:30 2021, MaxMem=   524288000 cpu:               0.9 elap:               1.1
 (Enter /opt/gaussian/g16_legacy/l906.exe)
 Frozen-core derivative calculation, NFC=  10 NFV=   0.
 FulOut=F Deriv=T AODrv=T NAtomX=    28
   MMem=          88  MDisk=          29 MDiskD=          29
  W3Min=     2246400 MinDsk=     2795480 NBas6D=         240
 NBas2D=       29244    NTT=       28920    LW2=     2040000
    MDV=   523626386 MDiskM=       30186 NBas2p=       24383
 Fully direct method using O(ONN) memory.
 IMap=   1   2   3   4   5   6   7   8   9  10  11  12  13  14  15  16  17  18  19  20
 IMap=  21  22  23  24  25  26  27  28  29  30  31  32  33  34  35  36  37  38  39
 JobTyp=1 Pass  1:  I=  11 to  39 NPSUse=  1 ParTrn=F ParDer=F DoDerP=T.
 Spin components of T(2) and E(2):
     alpha-alpha T2 =       0.5715137896D-01 E2=     -0.1638031245D+00
     alpha-beta  T2 =       0.3618132320D+00 E2=     -0.1089336276D+01
     beta-beta   T2 =       0.5715137896D-01 E2=     -0.1638031245D+00
 The integrals were generated   1 times.
 ANorm=    0.1214955139D+01
 E2 =    -0.1416942526D+01 EUMP2 =    -0.39057215140176D+03
 Leave Link  906 at Fri Sep 17 16:00:49 2021, MaxMem=   524288000 cpu:             138.1 elap:             138.5
 (Enter /opt/gaussian/g16_legacy/l1002.exe)
 Minotr:  Closed shell wavefunction.
          Computing MP2/KS-MP2 derivatives.
          Using Z-Vector for PSCF gradient.
          Skipping F1 and S1 gradient terms here.
          IDoAtm=1111111111111111111111111111
          Frozen-core window.
          Direct CPHF calculation.
          Differentiating once with respect to electric field.
                with respect to dipole field.
          Differentiating once with respect to nuclear coordinates.
          Requested convergence is 1.0D-10 RMS, and 1.0D-09 maximum.
          NewPWx=F KeepS1=T KeepF1=T KeepIn=T MapXYZ=F SortEE=F KeepMc=T.
 Keep R1 ints in memory in canonical form, NReq=425201067.
 FoFCou: FMM=F IPFlag=           0 FMFlag=           0 FMFlg1=           0
         NFxFlg=           0 DoJE=F BraDBF=F KetDBF=F FulRan=T
         wScrn=  0.000000 ICntrl=       600 IOpCl=  0 I1Cent=           0 NGrid=           0
         NMat0=    1 NMatS0=  28920 NMatT0=    0 NMatD0=    1 NMtDS0=    0 NMtDT0=    0
 Symmetry not used in FoFCou.
 Two-electron integral symmetry not used.
          MDV=     524288000 using IRadAn=       5.
          Solving linear equations separately, MaxMat=       0.
          There are     1 degrees of freedom in the 1st order CPHF.  IDoFFX=0 NUNeed=     1.
 LinEq1:  Iter=  0 NonCon=     1 RMS=2.55D-03 Max=3.75D-02 NDo=     1
 AX will form     1 AO Fock derivatives at one time.
 LinEq1:  Iter=  1 NonCon=     1 RMS=6.90D-04 Max=9.74D-03 NDo=     1
 LinEq1:  Iter=  2 NonCon=     1 RMS=1.61D-04 Max=4.14D-03 NDo=     1
 LinEq1:  Iter=  3 NonCon=     1 RMS=4.31D-05 Max=5.08D-04 NDo=     1
 LinEq1:  Iter=  4 NonCon=     1 RMS=1.99D-05 Max=8.55D-04 NDo=     1
 LinEq1:  Iter=  5 NonCon=     1 RMS=5.06D-06 Max=8.27D-05 NDo=     1
 LinEq1:  Iter=  6 NonCon=     1 RMS=1.63D-06 Max=2.68D-05 NDo=     1
 LinEq1:  Iter=  7 NonCon=     1 RMS=4.13D-07 Max=4.18D-06 NDo=     1
 LinEq1:  Iter=  8 NonCon=     1 RMS=1.01D-07 Max=1.86D-06 NDo=     1
 LinEq1:  Iter=  9 NonCon=     1 RMS=2.33D-08 Max=6.32D-07 NDo=     1
 LinEq1:  Iter= 10 NonCon=     1 RMS=6.41D-09 Max=1.62D-07 NDo=     1
 LinEq1:  Iter= 11 NonCon=     1 RMS=1.89D-09 Max=3.62D-08 NDo=     1
 LinEq1:  Iter= 12 NonCon=     1 RMS=4.07D-10 Max=5.80D-09 NDo=     1
 LinEq1:  Iter= 13 NonCon=     1 RMS=1.00D-10 Max=1.52D-09 NDo=     1
 LinEq1:  Iter= 14 NonCon=     0 RMS=3.20D-11 Max=8.55D-10 NDo=     1
 Linear equations converged to 1.000D-10 1.000D-09 after    14 iterations.
 End of Minotr F.D. properties file   721 does not exist.
 End of Minotr F.D. properties file   722 does not exist.
 End of Minotr F.D. properties file   788 does not exist.
 Leave Link 1002 at Fri Sep 17 16:01:06 2021, MaxMem=   524288000 cpu:              17.6 elap:              17.8
 (Enter /opt/gaussian/g16_legacy/l601.exe)
 Copying SCF densities to generalized density rwf, IOpCl= 0 IROHF=0.

 **********************************************************************

            Population analysis using the SCF density.

 **********************************************************************

 Orbital symmetries:
       Occupied  (A) (A) (A) (A) (A) (A) (A) (A) (A) (A) (A) (A)
                 (A) (A) (A) (A) (A) (A) (A) (A) (A) (A) (A) (A)
                 (A) (A) (A) (A) (A) (A) (A) (A) (A) (A) (A) (A)
                 (A) (A) (A)
       Virtual   (A) (A) (A) (A) (A) (A) (A) (A) (A) (A) (A) (A)
                 (A) (A) (A) (A) (A) (A) (A) (A) (A) (A) (A) (A)
                 (A) (A) (A) (A) (A) (A) (A) (A) (A) (A) (A) (A)
                 (A) (A) (A) (A) (A) (A) (A) (A) (A) (A) (A) (A)
                 (A) (A) (A) (A) (A) (A) (A) (A) (A) (A) (A) (A)
                 (A) (A) (A) (A) (A) (A) (A) (A) (A) (A) (A) (A)
                 (A) (A) (A) (A) (A) (A) (A) (A) (A) (A) (A) (A)
                 (A) (A) (A) (A) (A) (A) (A) (A) (A) (A) (A) (A)
                 (A) (A) (A) (A) (A) (A) (A) (A) (A) (A) (A) (A)
                 (A) (A) (A) (A) (A) (A) (A) (A) (A) (A) (A) (A)
                 (A) (A) (A) (A) (A) (A) (A) (A) (A) (A) (A) (A)
                 (A) (A) (A) (A) (A) (A) (A) (A) (A) (A) (A) (A)
                 (A) (A) (A) (A) (A) (A) (A) (A) (A) (A) (A) (A)
                 (A) (A) (A) (A) (A) (A) (A) (A) (A) (A) (A) (A)
                 (A) (A) (A) (A) (A) (A) (A) (A) (A) (A) (A) (A)
                 (A) (A) (A) (A) (A) (A) (A) (A) (A) (A) (A) (A)
                 (A) (A) (A) (A) (A) (A) (A) (A) (A)
 The electronic state is 1-A.
 Alpha  occ. eigenvalues --  -11.23060 -11.22505 -11.22000 -11.21921 -11.21883
 Alpha  occ. eigenvalues --  -11.21650 -11.21554 -11.21485 -11.21456 -11.21437
 Alpha  occ. eigenvalues --   -1.10624  -1.08328  -1.01911  -0.98014  -0.93647
 Alpha  occ. eigenvalues --   -0.91776  -0.86754  -0.82685  -0.70599  -0.69343
 Alpha  occ. eigenvalues --   -0.64584  -0.61546  -0.60102  -0.59030  -0.58088
 Alpha  occ. eigenvalues --   -0.56803  -0.55368  -0.55149  -0.53547  -0.51981
 Alpha  occ. eigenvalues --   -0.51715  -0.51321  -0.50593  -0.49230  -0.48275
 Alpha  occ. eigenvalues --   -0.46013  -0.44273  -0.33356  -0.31525
 Alpha virt. eigenvalues --    0.18455   0.19493   0.22038   0.24453   0.25183
 Alpha virt. eigenvalues --    0.27140   0.28394   0.28931   0.30249   0.30505
 Alpha virt. eigenvalues --    0.31237   0.32117   0.33136   0.33436   0.34030
 Alpha virt. eigenvalues --    0.35677   0.35773   0.36971   0.38998   0.40649
 Alpha virt. eigenvalues --    0.41064   0.42594   0.43321   0.44192   0.45151
 Alpha virt. eigenvalues --    0.51685   0.54047   0.61172   0.62445   0.70139
 Alpha virt. eigenvalues --    0.71101   0.71888   0.74281   0.76417   0.76617
 Alpha virt. eigenvalues --    0.76877   0.78796   0.79455   0.81139   0.82037
 Alpha virt. eigenvalues --    0.83812   0.85656   0.88079   0.91266   0.92026
 Alpha virt. eigenvalues --    0.92895   0.95179   0.97058   0.98262   0.99207
 Alpha virt. eigenvalues --    0.99752   1.00203   1.02302   1.03926   1.06183
 Alpha virt. eigenvalues --    1.07863   1.08638   1.08809   1.11198   1.12390
 Alpha virt. eigenvalues --    1.12559   1.13431   1.14582   1.14926   1.15819
 Alpha virt. eigenvalues --    1.16164   1.16402   1.18224   1.18705   1.20091
 Alpha virt. eigenvalues --    1.20662   1.22066   1.22853   1.25017   1.27543
 Alpha virt. eigenvalues --    1.34171   1.40672   1.41850   1.43739   1.45171
 Alpha virt. eigenvalues --    1.47560   1.53474   1.56257   1.56980   1.58249
 Alpha virt. eigenvalues --    1.59852   1.62719   1.65798   1.69520   1.70790
 Alpha virt. eigenvalues --    1.75331   1.82524   1.92037   1.92195   1.95500
 Alpha virt. eigenvalues --    1.98631   2.01125   2.02848   2.04186   2.08702
 Alpha virt. eigenvalues --    2.09248   2.11123   2.11379   2.13102   2.14505
 Alpha virt. eigenvalues --    2.15425   2.17689   2.19724   2.23578   2.27382
 Alpha virt. eigenvalues --    2.28338   2.29997   2.32203   2.34977   2.35569
 Alpha virt. eigenvalues --    2.35646   2.35781   2.39322   2.39850   2.40350
 Alpha virt. eigenvalues --    2.41280   2.41828   2.43035   2.45164   2.45386
 Alpha virt. eigenvalues --    2.47033   2.48343   2.49336   2.50338   2.54526
 Alpha virt. eigenvalues --    2.56587   2.57719   2.61273   2.62185   2.64354
 Alpha virt. eigenvalues --    2.66341   2.67162   2.72031   2.72995   2.73745
 Alpha virt. eigenvalues --    2.75718   2.77698   2.81091   2.82803   2.85158
 Alpha virt. eigenvalues --    2.87732   2.89153   2.91917   2.93441   2.94437
 Alpha virt. eigenvalues --    2.97093   2.99038   3.01162   3.02602   3.05101
 Alpha virt. eigenvalues --    3.05824   3.06631   3.08508   3.13017   3.15940
 Alpha virt. eigenvalues --    3.17135   3.18164   3.19614   3.20681   3.21261
 Alpha virt. eigenvalues --    3.23192   3.24411   3.26463   3.27245   3.36665
 Alpha virt. eigenvalues --    3.39078   3.44610   3.45619   3.55547   3.57296
 Alpha virt. eigenvalues --    3.58695   3.61054   3.66886   3.73950   3.78197
 Alpha virt. eigenvalues --    3.78867   3.80509   3.81327   3.82331   3.82838
 Alpha virt. eigenvalues --    3.84207   3.85753   3.87658   3.89509   3.91177
 Alpha virt. eigenvalues --    3.95898   4.59097   4.62634   4.74428   4.82816
 Alpha virt. eigenvalues --    4.88836   4.92667   4.93352   5.07552   5.10289
 Alpha virt. eigenvalues --    5.16870
          Condensed to atoms (all electrons):
               1          2          3          4          5          6
     1  C    5.001827   0.412351   0.413507   0.340291  -0.058755  -0.003553
     2  H    0.412351   0.571711  -0.030238  -0.040533   0.003238  -0.000016
     3  H    0.413507  -0.030238   0.588496  -0.045048  -0.004692   0.002570
     4  C    0.340291  -0.040533  -0.045048   4.955057   0.349342  -0.043067
     5  C   -0.058755   0.003238  -0.004692   0.349342   4.896442   0.397383
     6  H   -0.003553  -0.000016   0.002570  -0.043067   0.397383   0.593606
     7  H   -0.000532  -0.000030  -0.000276  -0.045808   0.400281  -0.035014
     8  H    0.003677  -0.000103   0.000081  -0.041413   0.406178  -0.027601
     9  C   -0.044047  -0.002233   0.001918   0.698842  -0.045928  -0.000426
    10  H    0.003079   0.000060  -0.000114  -0.036530  -0.006482   0.000248
    11  C   -0.007062  -0.002134   0.000138  -0.050687   0.003424  -0.000114
    12  H    0.000227   0.000172   0.000028  -0.001413  -0.000116   0.000021
    13  H   -0.001828  -0.001333   0.000004  -0.000419   0.000092  -0.000001
    14  H    0.000232  -0.000034  -0.000010   0.000594  -0.000100  -0.000004
    15  C    0.000597   0.000160  -0.000016  -0.000017  -0.000000  -0.000000
    16  H   -0.000053  -0.000052  -0.000012  -0.000027  -0.000000  -0.000000
    17  H   -0.000041   0.000014   0.000000   0.000001  -0.000000   0.000000
    18  H    0.000077  -0.000076  -0.000001  -0.000002   0.000000  -0.000000
    19  C   -0.003609   0.001046   0.000615   0.000006  -0.000002   0.000000
    20  C   -0.000101  -0.000042  -0.000000   0.000002  -0.000000  -0.000000
    21  H   -0.000003  -0.000002   0.000002   0.000000  -0.000000  -0.000000
    22  H   -0.000004   0.000001   0.000000   0.000000  -0.000000   0.000000
    23  H    0.000022  -0.000005  -0.000001  -0.000000   0.000000  -0.000000
    24  C   -0.063059  -0.000805  -0.000607   0.006129  -0.000158   0.000001
    25  H    0.000004   0.000213   0.001004  -0.000155   0.000010  -0.000002
    26  C    0.326228  -0.039858  -0.044598  -0.057357  -0.000188   0.000027
    27  H   -0.040301  -0.002145   0.004203  -0.001436   0.000317   0.000012
    28  H   -0.045137   0.004291  -0.002604  -0.001850  -0.000392   0.000093
               7          8          9         10         11         12
     1  C   -0.000532   0.003677  -0.044047   0.003079  -0.007062   0.000227
     2  H   -0.000030  -0.000103  -0.002233   0.000060  -0.002134   0.000172
     3  H   -0.000276   0.000081   0.001918  -0.000114   0.000138   0.000028
     4  C   -0.045808  -0.041413   0.698842  -0.036530  -0.050687  -0.001413
     5  C    0.400281   0.406178  -0.045928  -0.006482   0.003424  -0.000116
     6  H   -0.035014  -0.027601  -0.000426   0.000248  -0.000114   0.000021
     7  H    0.594782  -0.028083  -0.001033   0.000123  -0.000100  -0.000005
     8  H   -0.028083   0.571033  -0.002738   0.002223   0.000137  -0.000004
     9  C   -0.001033  -0.002738   4.939977   0.404867   0.337715  -0.044360
    10  H    0.000123   0.002223   0.404867   0.559362  -0.043635  -0.000222
    11  C   -0.000100   0.000137   0.337715  -0.043635   4.906216   0.400035
    12  H   -0.000005  -0.000004  -0.044360  -0.000222   0.400035   0.584222
    13  H    0.000000   0.000004  -0.041940   0.003315   0.408020  -0.026847
    14  H    0.000015  -0.000009  -0.042850  -0.002648   0.403001  -0.033277
    15  C   -0.000000  -0.000000   0.000010  -0.000000  -0.000097   0.000002
    16  H    0.000000   0.000000  -0.000032   0.000000   0.000040  -0.000008
    17  H    0.000000   0.000000   0.000000   0.000000   0.000002   0.000000
    18  H    0.000000  -0.000000   0.000000  -0.000000  -0.000003  -0.000000
    19  C    0.000000   0.000000   0.000001   0.000000   0.000007  -0.000000
    20  C   -0.000000   0.000000  -0.000000   0.000000  -0.000000   0.000000
    21  H   -0.000000   0.000000  -0.000000   0.000000   0.000000  -0.000000
    22  H    0.000000   0.000000   0.000000   0.000000  -0.000000   0.000000
    23  H    0.000000  -0.000000  -0.000000  -0.000000   0.000000  -0.000000
    24  C   -0.000086   0.000003   0.000070   0.000002  -0.000032   0.000002
    25  H    0.000012  -0.000000  -0.000002  -0.000000   0.000000   0.000000
    26  C    0.000810  -0.000097  -0.004366  -0.000116   0.000690  -0.000050
    27  H   -0.000009  -0.000010   0.001215  -0.000044   0.000070   0.000023
    28  H   -0.000187  -0.000025   0.000514   0.000004  -0.000030  -0.000000
              13         14         15         16         17         18
     1  C   -0.001828   0.000232   0.000597  -0.000053  -0.000041   0.000077
     2  H   -0.001333  -0.000034   0.000160  -0.000052   0.000014  -0.000076
     3  H    0.000004  -0.000010  -0.000016  -0.000012   0.000000  -0.000001
     4  C   -0.000419   0.000594  -0.000017  -0.000027   0.000001  -0.000002
     5  C    0.000092  -0.000100  -0.000000  -0.000000  -0.000000   0.000000
     6  H   -0.000001  -0.000004  -0.000000  -0.000000   0.000000  -0.000000
     7  H    0.000000   0.000015  -0.000000   0.000000   0.000000   0.000000
     8  H    0.000004  -0.000009  -0.000000   0.000000   0.000000  -0.000000
     9  C   -0.041940  -0.042850   0.000010  -0.000032   0.000000   0.000000
    10  H    0.003315  -0.002648  -0.000000   0.000000   0.000000  -0.000000
    11  C    0.408020   0.403001  -0.000097   0.000040   0.000002  -0.000003
    12  H   -0.026847  -0.033277   0.000002  -0.000008   0.000000  -0.000000
    13  H    0.573883  -0.030017   0.000010   0.000570  -0.000006   0.000034
    14  H   -0.030017   0.586828  -0.000004   0.000042  -0.000000   0.000000
    15  C    0.000010  -0.000004   4.909237   0.406153   0.398264   0.402449
    16  H    0.000570   0.000042   0.406153   0.568187  -0.026275  -0.030016
    17  H   -0.000006  -0.000000   0.398264  -0.026275   0.582554  -0.033096
    18  H    0.000034   0.000000   0.402449  -0.030016  -0.033096   0.586174
    19  C   -0.000013   0.000000   0.348398  -0.037063  -0.043827  -0.043923
    20  C    0.000000  -0.000000  -0.065382   0.003679  -0.001686  -0.003430
    21  H   -0.000000  -0.000000   0.003695  -0.000108  -0.000079   0.000010
    22  H   -0.000000  -0.000000  -0.001105  -0.000023   0.002553  -0.000507
    23  H   -0.000000   0.000000  -0.002139  -0.000072  -0.000371   0.002846
    24  C    0.000003  -0.000004  -0.043325  -0.002871  -0.000842   0.000448
    25  H   -0.000001   0.000000   0.003366   0.000059  -0.000126  -0.000110
    26  C   -0.000212   0.000091  -0.007536  -0.001943   0.000188   0.000286
    27  H   -0.000251  -0.000079  -0.002066  -0.001169   0.000056  -0.000043
    28  H   -0.000008   0.000000   0.000169   0.000031   0.000032  -0.000012
              19         20         21         22         23         24
     1  C   -0.003609  -0.000101  -0.000003  -0.000004   0.000022  -0.063059
     2  H    0.001046  -0.000042  -0.000002   0.000001  -0.000005  -0.000805
     3  H    0.000615  -0.000000   0.000002   0.000000  -0.000001  -0.000607
     4  C    0.000006   0.000002   0.000000   0.000000  -0.000000   0.006129
     5  C   -0.000002  -0.000000  -0.000000  -0.000000   0.000000  -0.000158
     6  H    0.000000  -0.000000  -0.000000   0.000000  -0.000000   0.000001
     7  H    0.000000  -0.000000  -0.000000   0.000000   0.000000  -0.000086
     8  H    0.000000   0.000000   0.000000   0.000000  -0.000000   0.000003
     9  C    0.000001  -0.000000  -0.000000   0.000000  -0.000000   0.000070
    10  H    0.000000   0.000000   0.000000   0.000000  -0.000000   0.000002
    11  C    0.000007  -0.000000   0.000000  -0.000000   0.000000  -0.000032
    12  H   -0.000000   0.000000  -0.000000   0.000000  -0.000000   0.000002
    13  H   -0.000013   0.000000  -0.000000  -0.000000  -0.000000   0.000003
    14  H    0.000000  -0.000000  -0.000000  -0.000000   0.000000  -0.000004
    15  C    0.348398  -0.065382   0.003695  -0.001105  -0.002139  -0.043325
    16  H   -0.037063   0.003679  -0.000108  -0.000023  -0.000072  -0.002871
    17  H   -0.043827  -0.001686  -0.000079   0.002553  -0.000371  -0.000842
    18  H   -0.043923  -0.003430   0.000010  -0.000507   0.002846   0.000448
    19  C    4.918149   0.352284  -0.040391  -0.045760  -0.044294   0.698204
    20  C    0.352284   4.903264   0.405425   0.399260   0.396988  -0.044862
    21  H   -0.040391   0.405425   0.568033  -0.027564  -0.027374  -0.002384
    22  H   -0.045760   0.399260  -0.027564   0.593082  -0.034908  -0.001136
    23  H   -0.044294   0.396988  -0.027374  -0.034908   0.594309  -0.000548
    24  C    0.698204  -0.044862  -0.002384  -0.001136  -0.000548   4.961448
    25  H   -0.036136  -0.006751   0.002177   0.000150   0.000235   0.402019
    26  C   -0.048265   0.003153   0.000146  -0.000124  -0.000086   0.339913
    27  H    0.000825   0.000071   0.000006   0.000004  -0.000004  -0.043820
    28  H    0.000913  -0.000102  -0.000011   0.000012  -0.000002  -0.043341
              25         26         27         28
     1  C    0.000004   0.326228  -0.040301  -0.045137
     2  H    0.000213  -0.039858  -0.002145   0.004291
     3  H    0.001004  -0.044598   0.004203  -0.002604
     4  C   -0.000155  -0.057357  -0.001436  -0.001850
     5  C    0.000010  -0.000188   0.000317  -0.000392
     6  H   -0.000002   0.000027   0.000012   0.000093
     7  H    0.000012   0.000810  -0.000009  -0.000187
     8  H   -0.000000  -0.000097  -0.000010  -0.000025
     9  C   -0.000002  -0.004366   0.001215   0.000514
    10  H   -0.000000  -0.000116  -0.000044   0.000004
    11  C    0.000000   0.000690   0.000070  -0.000030
    12  H    0.000000  -0.000050   0.000023  -0.000000
    13  H   -0.000001  -0.000212  -0.000251  -0.000008
    14  H    0.000000   0.000091  -0.000079   0.000000
    15  C    0.003366  -0.007536  -0.002066   0.000169
    16  H    0.000059  -0.001943  -0.001169   0.000031
    17  H   -0.000126   0.000188   0.000056   0.000032
    18  H   -0.000110   0.000286  -0.000043  -0.000012
    19  C   -0.036136  -0.048265   0.000825   0.000913
    20  C   -0.006751   0.003153   0.000071  -0.000102
    21  H    0.002177   0.000146   0.000006  -0.000011
    22  H    0.000150  -0.000124   0.000004   0.000012
    23  H    0.000235  -0.000086  -0.000004  -0.000002
    24  C    0.402019   0.339913  -0.043820  -0.043341
    25  H    0.558510  -0.041279   0.003231  -0.003486
    26  C   -0.041279   4.982356   0.414871   0.413768
    27  H    0.003231   0.414871   0.571267  -0.029600
    28  H   -0.003486   0.413768  -0.029600   0.588497
 Mulliken charges:
               1
     1  C   -0.234033
     2  H    0.126384
     3  H    0.115651
     4  C    0.015500
     5  C   -0.339893
     6  H    0.115837
     7  H    0.115140
     8  H    0.116746
     9  C   -0.155172
    10  H    0.116506
    11  C   -0.355601
    12  H    0.121570
    13  H    0.116940
    14  H    0.118232
    15  C   -0.350821
    16  H    0.120964
    17  H    0.122685
    18  H    0.118896
    19  C    0.022836
    20  C   -0.341769
    21  H    0.118421
    22  H    0.116068
    23  H    0.115403
    24  C   -0.160364
    25  H    0.117059
    26  C   -0.236454
    27  H    0.124807
    28  H    0.118463
 Sum of Mulliken charges =  -0.00000
 Mulliken charges with hydrogens summed into heavy atoms:
               1
     1  C    0.008003
     4  C    0.015500
     5  C    0.007830
     9  C   -0.038667
    11  C    0.001140
    15  C    0.011725
    19  C    0.022836
    20  C    0.008123
    24  C   -0.043305
    26  C    0.006816
 Electronic spatial extent (au):  <R**2>=           2423.6314
 Charge=             -0.0000 electrons
 Dipole moment (field-independent basis, Debye):
    X=              0.2947    Y=              0.1262    Z=             -0.0056  Tot=              0.3206
 Quadrupole moment (field-independent basis, Debye-Ang):
   XX=            -64.5120   YY=            -63.6031   ZZ=            -67.0543
   XY=              0.6105   XZ=              0.8624   YZ=             -0.4853
 Traceless Quadrupole moment (field-independent basis, Debye-Ang):
   XX=              0.5445   YY=              1.4534   ZZ=             -1.9979
   XY=              0.6105   XZ=              0.8624   YZ=             -0.4853
 Octapole moment (field-independent basis, Debye-Ang**2):
  XXX=              1.3668  YYY=             -2.7201  ZZZ=              0.1866  XYY=             -0.5707
  XXY=              4.5363  XXZ=             -2.6485  XZZ=              1.5755  YZZ=              1.2270
  YYZ=              1.3719  XYZ=             -0.7529
 Hexadecapole moment (field-independent basis, Debye-Ang**3):
 XXXX=          -2492.2596 YYYY=           -696.1106 ZZZZ=           -174.8264 XXXY=             -2.3535
 XXXZ=             11.9355 YYYX=             -9.3512 YYYZ=             -3.0498 ZZZX=             -0.8377
 ZZZY=             -0.0647 XXYY=           -530.4613 XXZZ=           -456.3092 YYZZ=           -139.1714
 XXYZ=             -4.2392 YYXZ=              3.1959 ZZXY=              4.6985
 N-N= 5.164381563107D+02 E-N=-1.937510243574D+03  KE= 3.886261278799D+02
 No NMR shielding tensors so no spin-rotation constants.
 Leave Link  601 at Fri Sep 17 16:01:07 2021, MaxMem=   524288000 cpu:               0.2 elap:               0.4
 (Enter /opt/gaussian/g16_legacy/l701.exe)
 ... and contract with generalized density number  2.
 Compute integral first derivatives.
 Leave Link  701 at Fri Sep 17 16:01:07 2021, MaxMem=   524288000 cpu:               0.2 elap:               0.2
 (Enter /opt/gaussian/g16_legacy/l702.exe)
 L702 exits ... SP integral derivatives will be done elsewhere.
 Leave Link  702 at Fri Sep 17 16:01:07 2021, MaxMem=   524288000 cpu:               0.0 elap:               0.0
 (Enter /opt/gaussian/g16_legacy/l703.exe)
 Integral derivatives from FoFJK, PRISM(SPDF).
 Compute integral first derivatives, UseDBF=F ICtDFT=           0.
 Calling FoFJK, ICntrl=  10002127 FMM=F ISym2X=0 I1Cent= 0 IOpClX= 0 NMat=1 NMatS=1 NMatT=0.
 FoFJK:  IHMeth= 1 ICntrl=10002127 DoSepK=F KAlg= 0 I1Cent=           0 FoldK=F
 IRaf=         0 NMat=       1 IRICut=       1 DoRegI=T DoRafI=F ISym2E= 0 IDoP0=0 IntGTp=1.
 FoFCou: FMM=F IPFlag=           0 FMFlag=      100000 FMFlg1=         800
         NFxFlg=           0 DoJE=F BraDBF=F KetDBF=F FulRan=T
         wScrn=  0.000000 ICntrl=  10002127 IOpCl=  0 I1Cent=           0 NGrid=           0
         NMat0=    1 NMatS0=      1 NMatT0=    0 NMatD0=    1 NMtDS0=    0 NMtDT0=    0
 Symmetry not used in FoFCou.
 Leave Link  703 at Fri Sep 17 16:01:26 2021, MaxMem=   524288000 cpu:              19.2 elap:              19.2
 (Enter /opt/gaussian/g16_legacy/l716.exe)
 Dipole        = 9.10713141D-02 6.69227664D-02-4.66459336D-03
 ***** Axes restored to original set *****
 -------------------------------------------------------------------
 Center     Atomic                   Forces (Hartrees/Bohr)
 Number     Number              X              Y              Z
 -------------------------------------------------------------------
      1        6           0.007309152   -0.006016513    0.000639274
      2        1          -0.000687162    0.002810695   -0.003679441
      3        1          -0.000351039    0.000810190   -0.003698485
      4        6           0.004455479   -0.000476807    0.004657479
      5        6           0.002767979   -0.000094592   -0.001555172
      6        1          -0.001405065    0.001818252   -0.002452693
      7        1           0.000823556    0.000053602    0.003286173
      8        1          -0.003848842   -0.001274923    0.000352105
      9        6          -0.001920509    0.002953455   -0.001396127
     10        1          -0.002175814    0.002460626    0.001425545
     11        6          -0.002009561   -0.001751788   -0.000628465
     12        1          -0.001765294   -0.000989098   -0.002768014
     13        1           0.003051850    0.001065385    0.000931705
     14        1           0.000049682   -0.001674130    0.003063434
     15        6           0.004118766   -0.000811211   -0.001840026
     16        1          -0.002287111    0.002400535    0.000948252
     17        1           0.000091184   -0.002633375    0.001768950
     18        1          -0.001555488    0.002627063   -0.001993920
     19        6           0.000964568    0.001838368    0.004905119
     20        6           0.000277111    0.002285081    0.002503827
     21        1           0.001905534   -0.002600219   -0.002915949
     22        1           0.000096448   -0.002511883    0.002229148
     23        1          -0.001931610    0.001338056   -0.002624543
     24        6           0.001276450    0.003220209   -0.003956937
     25        1          -0.002005586   -0.002694977   -0.000580360
     26        6          -0.007507958    0.001634159   -0.001784489
     27        1           0.000598495   -0.001117594    0.003853392
     28        1           0.001664788   -0.002668566    0.001310217
 -------------------------------------------------------------------
 Cartesian Forces:  Max     0.007507958 RMS     0.002572551
 Leave Link  716 at Fri Sep 17 16:01:26 2021, MaxMem=   524288000 cpu:               0.1 elap:               0.0
 (Enter /opt/gaussian/g16_legacy/l103.exe)

 GradGradGradGradGradGradGradGradGradGradGradGradGradGradGradGradGradGrad
 Berny optimization.
 FormGI is forming the generalized inverse of G from B-inverse, IUseBI=4.
 Internal  Forces:  Max     0.004886115 RMS     0.001917165
 Search for a local minimum.
 Step number   1 out of a maximum of  138
 All quantities printed in internal units (Hartrees-Bohrs-Radians)
 RMS Force = .19172D-02 SwitMx=.10000D-02 MixMth= 1
 Mixed Optimization -- RFO/linear search
 Second derivative matrix not updated -- first step.
 ITU=  0
     Eigenvalues ---    0.00342   0.00570   0.00671   0.00680   0.00693
     Eigenvalues ---    0.00715   0.00818   0.01219   0.01287   0.01570
     Eigenvalues ---    0.01641   0.02779   0.02785   0.04017   0.04138
     Eigenvalues ---    0.05349   0.05399   0.06978   0.07035   0.07091
     Eigenvalues ---    0.07092   0.07269   0.07300   0.07347   0.07505
     Eigenvalues ---    0.09277   0.09362   0.12767   0.12843   0.15999
     Eigenvalues ---    0.15999   0.16000   0.16000   0.16000   0.16000
     Eigenvalues ---    0.16000   0.16000   0.16000   0.16000   0.16000
     Eigenvalues ---    0.16000   0.16000   0.16000   0.21858   0.21866
     Eigenvalues ---    0.22000   0.22000   0.24994   0.24997   0.24998
     Eigenvalues ---    0.24999   0.29238   0.30871   0.31632   0.31704
     Eigenvalues ---    0.31808   0.31975   0.32797   0.33868   0.33968
     Eigenvalues ---    0.34064   0.34200   0.34227   0.34230   0.34239
     Eigenvalues ---    0.34246   0.34248   0.34253   0.34255   0.34256
     Eigenvalues ---    0.34292   0.34340   0.34550   0.34555   0.34802
     Eigenvalues ---    0.34845   0.55491   0.55589
 RFO step:  Lambda=-2.95978364D-03 EMin= 3.42475580D-03
 Linear search not attempted -- first point.
 Iteration  1 RMS(Cart)=  0.03968034 RMS(Int)=  0.00072377
 Iteration  2 RMS(Cart)=  0.00093456 RMS(Int)=  0.00016631
 Iteration  3 RMS(Cart)=  0.00000043 RMS(Int)=  0.00016631
 ITry= 1 IFail=0 DXMaxC= 1.83D-01 DCOld= 1.00D+10 DXMaxT= 3.00D-01 DXLimC= 3.00D+00 Rises=F
 Variable       Old X    -DE/DX   Delta X   Delta X   Delta X     New X
                                 (Linear)    (Quad)   (Total)
    R1        2.07223  -0.00331   0.00000  -0.00962  -0.00962   2.06261
    R2        2.07553  -0.00277   0.00000  -0.00810  -0.00810   2.06742
    R3        2.86259  -0.00353   0.00000  -0.01132  -0.01132   2.85127
    R4        2.89509   0.00172   0.00000   0.00584   0.00584   2.90092
    R5        2.84822  -0.00046   0.00000  -0.00143  -0.00143   2.84679
    R6        2.54698  -0.00400   0.00000  -0.00716  -0.00716   2.53982
    R7        2.06902  -0.00213   0.00000  -0.00617  -0.00617   2.06285
    R8        2.06840  -0.00181   0.00000  -0.00524  -0.00524   2.06315
    R9        2.06948  -0.00368   0.00000  -0.01065  -0.01065   2.05883
   R10        2.05928  -0.00223   0.00000  -0.00636  -0.00636   2.05292
   R11        2.82710   0.00311   0.00000   0.00940   0.00940   2.83649
   R12        2.06761  -0.00155   0.00000  -0.00448  -0.00448   2.06313
   R13        2.06404  -0.00290   0.00000  -0.00833  -0.00833   2.05572
   R14        2.06904  -0.00264   0.00000  -0.00763  -0.00763   2.06141
   R15        2.06411  -0.00282   0.00000  -0.00809  -0.00809   2.05603
   R16        2.06900  -0.00191   0.00000  -0.00554  -0.00554   2.06346
   R17        2.06994  -0.00261   0.00000  -0.00757  -0.00757   2.06237
   R18        2.84189  -0.00046   0.00000  -0.00143  -0.00143   2.84046
   R19        2.84688  -0.00079   0.00000  -0.00246  -0.00246   2.84442
   R20        2.54613  -0.00318   0.00000  -0.00569  -0.00569   2.54044
   R21        2.06944  -0.00395   0.00000  -0.01144  -0.01144   2.05800
   R22        2.06918  -0.00201   0.00000  -0.00581  -0.00581   2.06336
   R23        2.06913  -0.00199   0.00000  -0.00577  -0.00577   2.06336
   R24        2.05998  -0.00195   0.00000  -0.00556  -0.00556   2.05442
   R25        2.84497  -0.00148   0.00000  -0.00462  -0.00462   2.84035
   R26        2.06929  -0.00281   0.00000  -0.00815  -0.00815   2.06113
   R27        2.07383  -0.00240   0.00000  -0.00700  -0.00700   2.06683
    A1        1.82984   0.00207   0.00000   0.02253   0.02237   1.85221
    A2        1.93011   0.00043   0.00000   0.00931   0.00934   1.93945
    A3        1.91833  -0.00278   0.00000  -0.02019  -0.02023   1.89810
    A4        1.90272  -0.00070   0.00000  -0.00280  -0.00279   1.89993
    A5        1.92005  -0.00194   0.00000  -0.01724  -0.01727   1.90278
    A6        1.95842   0.00283   0.00000   0.00907   0.00911   1.96753
    A7        2.00826   0.00238   0.00000   0.00973   0.00916   2.01742
    A8        2.17071  -0.00489   0.00000  -0.01895  -0.01948   2.15122
    A9        2.10403   0.00252   0.00000   0.01033   0.00975   2.11378
   A10        1.92481   0.00166   0.00000   0.00899   0.00901   1.93382
   A11        1.92807   0.00227   0.00000   0.01214   0.01216   1.94022
   A12        1.95921  -0.00261   0.00000  -0.01303  -0.01300   1.94621
   A13        1.89493  -0.00307   0.00000  -0.02469  -0.02469   1.87025
   A14        1.87769   0.00109   0.00000   0.01010   0.01013   1.88782
   A15        1.87698   0.00055   0.00000   0.00565   0.00569   1.88267
   A16        2.06965  -0.00193   0.00000  -0.01336  -0.01338   2.05627
   A17        2.22513  -0.00188   0.00000  -0.00838  -0.00840   2.21673
   A18        1.98827   0.00381   0.00000   0.02191   0.02189   2.01017
   A19        1.91724   0.00395   0.00000   0.02330   0.02326   1.94050
   A20        1.98125  -0.00299   0.00000  -0.01843  -0.01835   1.96290
   A21        1.90995   0.00239   0.00000   0.01567   0.01562   1.92557
   A22        1.89298  -0.00096   0.00000  -0.00770  -0.00760   1.88537
   A23        1.88716  -0.00310   0.00000  -0.01887  -0.01904   1.86811
   A24        1.87264   0.00053   0.00000   0.00496   0.00503   1.87767
   A25        1.88438   0.00023   0.00000   0.00328   0.00331   1.88769
   A26        1.86368   0.00201   0.00000   0.01701   0.01702   1.88070
   A27        1.97971  -0.00222   0.00000  -0.01018  -0.01016   1.96955
   A28        1.89068  -0.00240   0.00000  -0.02163  -0.02161   1.86906
   A29        1.92160   0.00230   0.00000   0.01170   0.01172   1.93332
   A30        1.92089  -0.00001   0.00000  -0.00096  -0.00094   1.91995
   A31        1.99466   0.00147   0.00000   0.00582   0.00580   2.00047
   A32        2.18270  -0.00330   0.00000  -0.01299  -0.01301   2.16969
   A33        2.10577   0.00183   0.00000   0.00728   0.00726   2.11303
   A34        1.96065  -0.00277   0.00000  -0.01388  -0.01384   1.94681
   A35        1.92351   0.00174   0.00000   0.00872   0.00874   1.93224
   A36        1.92501   0.00219   0.00000   0.01227   0.01229   1.93730
   A37        1.87879   0.00092   0.00000   0.00795   0.00798   1.88677
   A38        1.87912   0.00093   0.00000   0.00943   0.00947   1.88858
   A39        1.89475  -0.00312   0.00000  -0.02532  -0.02531   1.86944
   A40        2.06719  -0.00168   0.00000  -0.01186  -0.01226   2.05493
   A41        2.22715  -0.00225   0.00000  -0.00993  -0.01035   2.21680
   A42        1.98872   0.00395   0.00000   0.02259   0.02217   2.01089
   A43        1.94455   0.00330   0.00000   0.01362   0.01364   1.95819
   A44        1.92592  -0.00263   0.00000  -0.02484  -0.02490   1.90102
   A45        1.92084  -0.00238   0.00000  -0.01473  -0.01492   1.90592
   A46        1.94661  -0.00053   0.00000  -0.00242  -0.00237   1.94424
   A47        1.88073   0.00060   0.00000   0.01696   0.01700   1.89774
   A48        1.84185   0.00155   0.00000   0.01192   0.01166   1.85351
    D1       -2.64260  -0.00174   0.00000  -0.05223  -0.05202  -2.69462
    D2        0.47845  -0.00076   0.00000   0.01013   0.00989   0.48835
    D3       -0.63958   0.00059   0.00000  -0.02159  -0.02135  -0.66092
    D4        2.48148   0.00157   0.00000   0.04077   0.04057   2.52205
    D5        1.49181  -0.00049   0.00000  -0.03938  -0.03917   1.45264
[...]
                 (A) (A) (A) (A) (A) (A) (A) (A) (A) (A) (A) (A)
                 (A) (A) (A) (A) (A) (A) (A) (A) (A) (A) (A) (A)
                 (A) (A) (A) (A) (A) (A) (A) (A) (A) (A) (A) (A)
                 (A) (A) (A) (A) (A) (A) (A) (A) (A) (A) (A) (A)
                 (A) (A) (A) (A) (A) (A) (A) (A) (A) (A) (A) (A)
                 (A) (A) (A) (A) (A) (A) (A) (A) (A) (A) (A) (A)
                 (A) (A) (A) (A) (A) (A) (A) (A) (A) (A) (A) (A)
                 (A) (A) (A) (A) (A) (A) (A) (A) (A) (A) (A) (A)
                 (A) (A) (A) (A) (A) (A) (A) (A) (A) (A) (A) (A)
                 (A) (A) (A) (A) (A) (A) (A) (A) (A) (A) (A) (A)
                 (A) (A) (A) (A) (A) (A) (A) (A) (A) (A) (A) (A)
                 (A) (A) (A) (A) (A) (A) (A) (A) (A) (A) (A) (A)
                 (A) (A) (A) (A) (A) (A) (A) (A) (A) (A) (A) (A)
                 (A) (A) (A) (A) (A) (A) (A) (A) (A)
 The electronic state is 1-A.
 Alpha  occ. eigenvalues --  -11.23020 -11.22460 -11.21868 -11.21730 -11.21712
 Alpha  occ. eigenvalues --  -11.21539 -11.21506 -11.21436 -11.21417 -11.21348
 Alpha  occ. eigenvalues --   -1.10821  -1.08492  -1.01823  -0.98143  -0.93838
 Alpha  occ. eigenvalues --   -0.91939  -0.86963  -0.82855  -0.70494  -0.69519
 Alpha  occ. eigenvalues --   -0.64988  -0.61512  -0.60591  -0.58878  -0.58366
 Alpha  occ. eigenvalues --   -0.56774  -0.55298  -0.54966  -0.53295  -0.52261
 Alpha  occ. eigenvalues --   -0.51859  -0.51173  -0.50832  -0.49581  -0.48519
 Alpha  occ. eigenvalues --   -0.46073  -0.44624  -0.33371  -0.31514
 Alpha virt. eigenvalues --    0.18142   0.19779   0.22152   0.24486   0.25192
 Alpha virt. eigenvalues --    0.27439   0.28535   0.28922   0.30318   0.30811
 Alpha virt. eigenvalues --    0.31477   0.32261   0.33202   0.33794   0.34383
 Alpha virt. eigenvalues --    0.35458   0.36114   0.36962   0.39185   0.40602
 Alpha virt. eigenvalues --    0.41328   0.42631   0.43685   0.44253   0.45395
 Alpha virt. eigenvalues --    0.51702   0.54378   0.61070   0.62576   0.70520
 Alpha virt. eigenvalues --    0.71073   0.72196   0.73768   0.76075   0.76177
 Alpha virt. eigenvalues --    0.76620   0.79010   0.79474   0.81070   0.82306
 Alpha virt. eigenvalues --    0.83713   0.85579   0.89117   0.91091   0.91343
 Alpha virt. eigenvalues --    0.92820   0.94745   0.97065   0.98284   0.98818
 Alpha virt. eigenvalues --    0.99710   1.00468   1.01911   1.03844   1.06577
 Alpha virt. eigenvalues --    1.08019   1.08221   1.09393   1.11664   1.12687
 Alpha virt. eigenvalues --    1.13026   1.13870   1.14856   1.15402   1.16045
 Alpha virt. eigenvalues --    1.16257   1.16619   1.18722   1.19116   1.20671
 Alpha virt. eigenvalues --    1.20953   1.23032   1.23885   1.25765   1.28153
 Alpha virt. eigenvalues --    1.34331   1.41722   1.42153   1.44890   1.46395
 Alpha virt. eigenvalues --    1.48456   1.54136   1.55360   1.57256   1.58165
 Alpha virt. eigenvalues --    1.61459   1.63397   1.66485   1.69046   1.69645
 Alpha virt. eigenvalues --    1.73917   1.82243   1.91111   1.93363   1.96231
 Alpha virt. eigenvalues --    1.98688   2.01467   2.02277   2.03942   2.08565
 Alpha virt. eigenvalues --    2.09706   2.10748   2.11744   2.13037   2.14903
 Alpha virt. eigenvalues --    2.15780   2.16940   2.19854   2.23666   2.28347
 Alpha virt. eigenvalues --    2.29590   2.30325   2.33235   2.35347   2.35688
 Alpha virt. eigenvalues --    2.35978   2.36098   2.38923   2.40264   2.41259
 Alpha virt. eigenvalues --    2.42195   2.43169   2.44154   2.45371   2.46084
 Alpha virt. eigenvalues --    2.47201   2.49167   2.49622   2.51174   2.54099
 Alpha virt. eigenvalues --    2.57315   2.58365   2.61888   2.63241   2.64107
 Alpha virt. eigenvalues --    2.67127   2.68175   2.71776   2.73352   2.73474
 Alpha virt. eigenvalues --    2.75815   2.77410   2.80796   2.82634   2.85354
 Alpha virt. eigenvalues --    2.87137   2.89441   2.92178   2.93739   2.94867
 Alpha virt. eigenvalues --    2.97869   2.99094   3.00960   3.02677   3.05807
 Alpha virt. eigenvalues --    3.06402   3.07703   3.09315   3.13762   3.17093
 Alpha virt. eigenvalues --    3.17589   3.19238   3.20046   3.21242   3.22334
 Alpha virt. eigenvalues --    3.24167   3.25050   3.26607   3.27420   3.37866
 Alpha virt. eigenvalues --    3.40355   3.46023   3.46902   3.56200   3.58183
 Alpha virt. eigenvalues --    3.59499   3.62406   3.67928   3.75494   3.78622
 Alpha virt. eigenvalues --    3.80005   3.81570   3.82569   3.83286   3.83898
 Alpha virt. eigenvalues --    3.84750   3.86481   3.87645   3.89820   3.91558
 Alpha virt. eigenvalues --    3.97645   4.59389   4.63170   4.74472   4.82572
 Alpha virt. eigenvalues --    4.88928   4.92582   4.93409   5.07840   5.10766
 Alpha virt. eigenvalues --    5.17766
          Condensed to atoms (all electrons):
               1          2          3          4          5          6
     1  C    5.004768   0.411714   0.414473   0.337355  -0.056085  -0.003698
     2  H    0.411714   0.572983  -0.028296  -0.038988   0.003071  -0.000034
     3  H    0.414473  -0.028296   0.587507  -0.046308  -0.004587   0.002378
     4  C    0.337355  -0.038988  -0.046308   4.952603   0.351934  -0.041506
     5  C   -0.056085   0.003071  -0.004587   0.351934   4.891804   0.397495
     6  H   -0.003698  -0.000034   0.002378  -0.041506   0.397495   0.591921
     7  H    0.000011  -0.000005  -0.000489  -0.045679   0.400946  -0.037541
     8  H    0.003801  -0.000108   0.000106  -0.042765   0.407087  -0.026764
     9  C   -0.047991  -0.001860   0.002531   0.697840  -0.046054  -0.000373
    10  H    0.003272   0.000031  -0.000118  -0.037842  -0.006525   0.000216
    11  C   -0.007749  -0.002811   0.000160  -0.050271   0.003364  -0.000105
    12  H    0.000152   0.000184   0.000017  -0.000627  -0.000106   0.000017
    13  H   -0.001745  -0.001657   0.000030  -0.000691   0.000109   0.000002
    14  H    0.000310  -0.000067  -0.000013  -0.000247  -0.000095  -0.000004
    15  C    0.000587   0.000200  -0.000015  -0.000018  -0.000000   0.000000
    16  H   -0.000302  -0.000131  -0.000016  -0.000011  -0.000000  -0.000000
    17  H   -0.000040   0.000022   0.000000   0.000001  -0.000000   0.000000
    18  H    0.000130  -0.000135  -0.000002  -0.000005   0.000000  -0.000000
    19  C   -0.004325   0.001388   0.000787   0.000041  -0.000003   0.000000
    20  C   -0.000099  -0.000043  -0.000004   0.000001  -0.000000  -0.000000
    21  H   -0.000003  -0.000002   0.000003   0.000000  -0.000000  -0.000000
    22  H   -0.000005   0.000002   0.000000   0.000000  -0.000000   0.000000
    23  H    0.000024  -0.000007  -0.000002  -0.000000   0.000000  -0.000000
    24  C   -0.061827  -0.000504  -0.000900   0.006443  -0.000149   0.000004
    25  H    0.000175   0.000111   0.001011  -0.000152   0.000010  -0.000001
    26  C    0.332330  -0.041801  -0.046074  -0.055544  -0.000661   0.000086
    27  H   -0.042369  -0.003118   0.004477  -0.001813   0.000243   0.000006
    28  H   -0.046841   0.004515  -0.001931  -0.002075  -0.000289   0.000058
               7          8          9         10         11         12
     1  C    0.000011   0.003801  -0.047991   0.003272  -0.007749   0.000152
     2  H   -0.000005  -0.000108  -0.001860   0.000031  -0.002811   0.000184
     3  H   -0.000489   0.000106   0.002531  -0.000118   0.000160   0.000017
     4  C   -0.045679  -0.042765   0.697840  -0.037842  -0.050271  -0.000627
     5  C    0.400946   0.407087  -0.046054  -0.006525   0.003364  -0.000106
     6  H   -0.037541  -0.026764  -0.000373   0.000216  -0.000105   0.000017
     7  H    0.596034  -0.027466  -0.001011   0.000135  -0.000101  -0.000004
     8  H   -0.027466   0.568858  -0.002890   0.002385   0.000132  -0.000006
     9  C   -0.001011  -0.002890   4.938971   0.404494   0.340494  -0.041523
    10  H    0.000135   0.002385   0.404494   0.558671  -0.041279  -0.001122
    11  C   -0.000101   0.000132   0.340494  -0.041279   4.900974   0.401144
    12  H   -0.000004  -0.000006  -0.041523  -0.001122   0.401144   0.583648
    13  H   -0.000003   0.000005  -0.043903   0.003299   0.409079  -0.027132
    14  H    0.000017  -0.000006  -0.041805  -0.001264   0.402169  -0.035462
    15  C   -0.000000  -0.000000   0.000015  -0.000000  -0.000147   0.000004
    16  H    0.000000   0.000000  -0.000045   0.000000   0.000074  -0.000013
    17  H   -0.000000   0.000000   0.000000   0.000000   0.000003   0.000000
    18  H    0.000000  -0.000000   0.000000  -0.000000  -0.000009  -0.000000
    19  C    0.000000   0.000000  -0.000001   0.000000   0.000013  -0.000000
    20  C   -0.000000   0.000000  -0.000000   0.000000  -0.000000   0.000000
    21  H   -0.000000   0.000000  -0.000000   0.000000   0.000000  -0.000000
    22  H    0.000000   0.000000   0.000000   0.000000   0.000000   0.000000
    23  H    0.000000  -0.000000   0.000000  -0.000000  -0.000000  -0.000000
    24  C   -0.000111   0.000004   0.000114   0.000002  -0.000031   0.000002
    25  H    0.000015  -0.000000  -0.000002  -0.000000   0.000000   0.000000
    26  C    0.000609  -0.000109  -0.004911  -0.000113   0.000577  -0.000037
    27  H   -0.000015  -0.000005   0.001406  -0.000046  -0.000082   0.000037
    28  H    0.000197  -0.000050   0.000760   0.000001  -0.000033  -0.000000
              13         14         15         16         17         18
     1  C   -0.001745   0.000310   0.000587  -0.000302  -0.000040   0.000130
     2  H   -0.001657  -0.000067   0.000200  -0.000131   0.000022  -0.000135
     3  H    0.000030  -0.000013  -0.000015  -0.000016   0.000000  -0.000002
     4  C   -0.000691  -0.000247  -0.000018  -0.000011   0.000001  -0.000005
     5  C    0.000109  -0.000095  -0.000000  -0.000000  -0.000000   0.000000
     6  H    0.000002  -0.000004   0.000000  -0.000000   0.000000  -0.000000
     7  H   -0.000003   0.000017  -0.000000   0.000000  -0.000000   0.000000
     8  H    0.000005  -0.000006  -0.000000   0.000000   0.000000  -0.000000
     9  C   -0.043903  -0.041805   0.000015  -0.000045   0.000000   0.000000
    10  H    0.003299  -0.001264  -0.000000   0.000000   0.000000  -0.000000
    11  C    0.409079   0.402169  -0.000147   0.000074   0.000003  -0.000009
    12  H   -0.027132  -0.035462   0.000004  -0.000013   0.000000  -0.000000
    13  H    0.577164  -0.029956  -0.000000   0.000412  -0.000008   0.000079
    14  H   -0.029956   0.586720  -0.000015   0.000114  -0.000000   0.000000
    15  C   -0.000000  -0.000015   4.907254   0.407154   0.399852   0.401208
    16  H    0.000412   0.000114   0.407154   0.568221  -0.026060  -0.028659
    17  H   -0.000008  -0.000000   0.399852  -0.026060   0.584669  -0.035759
    18  H    0.000079   0.000000   0.401208  -0.028659  -0.035759   0.587442
    19  C   -0.000026   0.000001   0.350333  -0.037848  -0.043537  -0.043385
    20  C    0.000000  -0.000000  -0.064931   0.003725  -0.002223  -0.002632
    21  H   -0.000000  -0.000000   0.003785  -0.000113  -0.000053  -0.000032
    22  H   -0.000000  -0.000000  -0.001201  -0.000031   0.002766  -0.000476
    23  H   -0.000000   0.000000  -0.001975  -0.000068  -0.000456   0.002756
    24  C    0.000026  -0.000009  -0.044248  -0.003253  -0.000365  -0.000031
    25  H   -0.000002   0.000000   0.003528   0.000061  -0.000121  -0.000121
    26  C   -0.000737   0.000163  -0.008144  -0.002069   0.000117   0.000367
    27  H   -0.000475  -0.000140  -0.002693  -0.001675   0.000113  -0.000076
    28  H   -0.000010  -0.000000   0.000195   0.000058   0.000021  -0.000014
              19         20         21         22         23         24
     1  C   -0.004325  -0.000099  -0.000003  -0.000005   0.000024  -0.061827
     2  H    0.001388  -0.000043  -0.000002   0.000002  -0.000007  -0.000504
     3  H    0.000787  -0.000004   0.000003   0.000000  -0.000002  -0.000900
     4  C    0.000041   0.000001   0.000000   0.000000  -0.000000   0.006443
     5  C   -0.000003  -0.000000  -0.000000  -0.000000   0.000000  -0.000149
     6  H    0.000000  -0.000000  -0.000000   0.000000  -0.000000   0.000004
     7  H    0.000000  -0.000000  -0.000000   0.000000   0.000000  -0.000111
     8  H    0.000000   0.000000   0.000000   0.000000  -0.000000   0.000004
     9  C   -0.000001  -0.000000  -0.000000   0.000000   0.000000   0.000114
    10  H    0.000000   0.000000   0.000000   0.000000  -0.000000   0.000002
    11  C    0.000013  -0.000000   0.000000   0.000000  -0.000000  -0.000031
    12  H   -0.000000   0.000000  -0.000000   0.000000  -0.000000   0.000002
    13  H   -0.000026   0.000000  -0.000000  -0.000000  -0.000000   0.000026
    14  H    0.000001  -0.000000  -0.000000  -0.000000   0.000000  -0.000009
    15  C    0.350333  -0.064931   0.003785  -0.001201  -0.001975  -0.044248
    16  H   -0.037848   0.003725  -0.000113  -0.000031  -0.000068  -0.003253
    17  H   -0.043537  -0.002223  -0.000053   0.002766  -0.000456  -0.000365
    18  H   -0.043385  -0.002632  -0.000032  -0.000476   0.002756  -0.000031
    19  C    4.914192   0.353753  -0.041639  -0.044274  -0.043899   0.697734
    20  C    0.353753   4.900112   0.406218   0.398811   0.398238  -0.044415
    21  H   -0.041639   0.406218   0.566018  -0.026549  -0.026703  -0.002632
    22  H   -0.044274   0.398811  -0.026549   0.593607  -0.037806  -0.001270
    23  H   -0.043899   0.398238  -0.026703  -0.037806   0.594542  -0.000422
    24  C    0.697734  -0.044415  -0.002632  -0.001270  -0.000422   4.962746
    25  H   -0.038449  -0.006963   0.002335   0.000187   0.000182   0.403391
    26  C   -0.050100   0.003126   0.000148  -0.000131  -0.000068   0.338699
    27  H    0.000438   0.000051   0.000007   0.000007  -0.000005  -0.044060
    28  H    0.001583  -0.000094  -0.000010   0.000009  -0.000002  -0.041395
              25         26         27         28
     1  C    0.000175   0.332330  -0.042369  -0.046841
     2  H    0.000111  -0.041801  -0.003118   0.004515
     3  H    0.001011  -0.046074   0.004477  -0.001931
     4  C   -0.000152  -0.055544  -0.001813  -0.002075
     5  C    0.000010  -0.000661   0.000243  -0.000289
     6  H   -0.000001   0.000086   0.000006   0.000058
     7  H    0.000015   0.000609  -0.000015   0.000197
     8  H   -0.000000  -0.000109  -0.000005  -0.000050
     9  C   -0.000002  -0.004911   0.001406   0.000760
    10  H   -0.000000  -0.000113  -0.000046   0.000001
    11  C    0.000000   0.000577  -0.000082  -0.000033
    12  H    0.000000  -0.000037   0.000037  -0.000000
    13  H   -0.000002  -0.000737  -0.000475  -0.000010
    14  H    0.000000   0.000163  -0.000140  -0.000000
    15  C    0.003528  -0.008144  -0.002693   0.000195
    16  H    0.000061  -0.002069  -0.001675   0.000058
    17  H   -0.000121   0.000117   0.000113   0.000021
    18  H   -0.000121   0.000367  -0.000076  -0.000014
    19  C   -0.038449  -0.050100   0.000438   0.001583
    20  C   -0.006963   0.003126   0.000051  -0.000094
    21  H    0.002335   0.000148   0.000007  -0.000010
    22  H    0.000187  -0.000131   0.000007   0.000009
    23  H    0.000182  -0.000068  -0.000005  -0.000002
    24  C    0.403391   0.338699  -0.044060  -0.041395
    25  H    0.557389  -0.039113   0.003152  -0.003424
    26  C   -0.039113   4.979544   0.415850   0.413482
    27  H    0.003152   0.415850   0.575347  -0.028362
    28  H   -0.003424   0.413482  -0.028362   0.585267
 Mulliken charges:
               1
     1  C   -0.236021
     2  H    0.125346
     3  H    0.115272
     4  C    0.018322
     5  C   -0.341505
     6  H    0.117844
     7  H    0.114461
     8  H    0.117792
     9  C   -0.154256
    10  H    0.115801
    11  C   -0.355567
    12  H    0.120830
    13  H    0.116140
    14  H    0.119588
    15  C   -0.350727
    16  H    0.120474
    17  H    0.121058
    18  H    0.119352
    19  C    0.027222
    20  C   -0.342631
    21  H    0.119222
    22  H    0.116356
    23  H    0.115672
    24  C   -0.163542
    25  H    0.116803
    26  C   -0.235486
    27  H    0.123802
    28  H    0.118380
 Sum of Mulliken charges =  -0.00000
 Mulliken charges with hydrogens summed into heavy atoms:
               1
     1  C    0.004596
     4  C    0.018322
     5  C    0.008593
     9  C   -0.038454
    11  C    0.000991
    15  C    0.010156
    19  C    0.027222
    20  C    0.008618
    24  C   -0.046740
    26  C    0.006696
 Electronic spatial extent (au):  <R**2>=           2384.0068
 Charge=             -0.0000 electrons
 Dipole moment (field-independent basis, Debye):
    X=              0.3027    Y=              0.1253    Z=              0.0460  Tot=              0.3308
 Quadrupole moment (field-independent basis, Debye-Ang):
   XX=            -64.3024   YY=            -63.2901   ZZ=            -67.3956
   XY=              0.7521   XZ=              1.2367   YZ=             -0.3487
 Traceless Quadrupole moment (field-independent basis, Debye-Ang):
   XX=              0.6937   YY=              1.7059   ZZ=             -2.3996
   XY=              0.7521   XZ=              1.2367   YZ=             -0.3487
 Octapole moment (field-independent basis, Debye-Ang**2):
  XXX=              2.6682  YYY=             -2.9989  ZZZ=              0.8999  XYY=             -0.6416
  XXY=              4.0909  XXZ=             -2.0918  XZZ=              1.2120  YZZ=              1.4955
  YYZ=              0.6111  XYZ=             -0.3641
 Hexadecapole moment (field-independent basis, Debye-Ang**3):
 XXXX=          -2435.7173 YYYY=           -693.4923 ZZZZ=           -166.6418 XXXY=              2.3046
 XXXZ=             14.7514 YYYX=            -11.0526 YYYZ=             -1.4215 ZZZX=              2.8119
 ZZZY=             -0.6410 XXYY=           -520.1248 XXZZ=           -449.2342 YYZZ=           -138.3649
 XXYZ=             -4.2785 YYXZ=              0.5786 ZZXY=              5.9187
 N-N= 5.190879538985D+02 E-N=-1.942888646740D+03  KE= 3.887471636925D+02
 No NMR shielding tensors so no spin-rotation constants.
 Leave Link  601 at Fri Sep 17 16:40:17 2021, MaxMem=   524288000 cpu:               0.2 elap:               0.2
 (Enter /opt/gaussian/g16_legacy/l9999.exe)
 1\1\GINC-TRUENO95\FOpt\RMP2-FC\6-31G(d,p)\C10H18\JRAMOS\17-Sep-2021\0\
 \#p opt mp2/6-31g(d,p)\\Conformer number 518. Energy MM = 23.242 kcal/
 mol\\0,1\C,0.8164537077,0.32515147,0.8875695433\H,0.4916266116,-0.6900
 398346,1.1207849906\H,0.7155006933,0.8984545237,1.8136471101\C,2.25453
 55833,0.3557536369,0.4347196065\C,3.0113746525,1.6135937628,0.76408912
 45\H,3.0949701389,1.7445804271,1.8451438437\H,2.4944626193,2.494365486
 4,0.3766354872\H,4.0156809745,1.5986039968,0.3425880156\C,2.8330053823
 ,-0.6374927472,-0.265841727\H,3.8682563744,-0.5047525335,-0.5677996478
 \C,2.2011338948,-1.9295720321,-0.6868068812\H,2.7436650805,-2.78260577
 05,-0.2747936737\H,1.1637152117,-2.0060659052,-0.3691651845\H,2.224226
 4645,-2.0335023067,-1.7732558164\C,-2.3681212377,-1.1690548339,-0.7059
 657784\H,-1.3613056772,-1.2934011285,-1.0966115728\H,-3.0631674406,-1.
 1637868776,-1.5486164313\H,-2.6072529444,-2.0493803712,-0.1054006956\C
 ,-2.5281891918,0.0785521793,0.1178780707\C,-3.8958801551,0.2675140232,
 0.7138345697\H,-3.9550118954,1.1854429616,1.2966453558\H,-4.6579178966
 ,0.3085110657,-0.0677741308\H,-4.1557680433,-0.5697018171,1.3655524556
 \C,-1.5518712929,0.9818590258,0.3266979077\H,-1.7853287967,1.833383694
 2,0.9609188503\C,-0.1380865068,0.9126387626,-0.169594099\H,-0.06204028
 72,0.3139529077,-1.0781237957\H,0.2015339766,1.9169982343,-0.436355497
 2\\Version=EM64L-G16RevA.03\State=1-A\HF=-389.1567534\MP2=-390.5738646
 \RMSD=5.143e-09\RMSF=3.225e-06\Dipole=-0.0935011,-0.0671357,-0.0163042
 \PG=C01 [X(C10H18)]\\@


 WORK FAITHFULLY FOR EIGHT HOURS A DAY AND DON'T WORRY.
 IN TIME YOU MAY BECOME BOSS AND WORK TWELVE HOURS A DAY
 AND HAVE ALL THE WORRY.
 Job cpu time:       0 days  0 hours 42 minutes  9.1 seconds.
 Elapsed time:       0 days  0 hours 42 minutes 10.7 seconds.
 File lengths (MBytes):  RWF=     32 Int=      0 D2E=      0 Chk=      7 Scr=      1
 Normal termination of Gaussian 16 at Fri Sep 17 16:40:17 2021.
