 Entering Gaussian System, Link 0=/opt/gaussian/g16_legacy/g16
 Input=01-IsoP_2030_gaussian.com
 Output=01-IsoP_2030_gaussian.log
 Initial command:
 /opt/gaussian/g16_legacy/l1.exe "/scratch-local/jramos/2661344/Gau-29818.inp" -scrdir="/scratch-local/jramos/2661344/"
 Entering Link 1 = /opt/gaussian/g16_legacy/l1.exe PID=     29826.
  
 Copyright (c) 1988,1990,1992,1993,1995,1998,2003,2009,2016,
            Gaussian, Inc.  All Rights Reserved.
  
 This is part of the Gaussian(R) 16 program.  It is based on
 the Gaussian(R) 09 system (copyright 2009, Gaussian, Inc.),
 the Gaussian(R) 03 system (copyright 2003, Gaussian, Inc.),
 the Gaussian(R) 98 system (copyright 1998, Gaussian, Inc.),
 the Gaussian(R) 94 system (copyright 1995, Gaussian, Inc.),
 the Gaussian 92(TM) system (copyright 1992, Gaussian, Inc.),
 the Gaussian 90(TM) system (copyright 1990, Gaussian, Inc.),
 the Gaussian 88(TM) system (copyright 1988, Gaussian, Inc.),
 the Gaussian 86(TM) system (copyright 1986, Carnegie Mellon
 University), and the Gaussian 82(TM) system (copyright 1983,
 Carnegie Mellon University). Gaussian is a federally registered
 trademark of Gaussian, Inc.
  
 This software contains proprietary and confidential information,
 including trade secrets, belonging to Gaussian, Inc.
  
 This software is provided under written license and may be
 used, copied, transmitted, or stored only in accord with that
 written license.
  
 The following legend is applicable only to US Government
 contracts under FAR:
  
                    RESTRICTED RIGHTS LEGEND
  
 Use, reproduction and disclosure by the US Government is
 subject to restrictions as set forth in subparagraphs (a)
 and (c) of the Commercial Computer Software - Restricted
 Rights clause in FAR 52.227-19.
  
 Gaussian, Inc.
 340 Quinnipiac St., Bldg. 40, Wallingford CT 06492
  
  
 ---------------------------------------------------------------
 Warning -- This program may not be used in any manner that
 competes with the business of Gaussian, Inc. or will provide
 assistance to any competitor of Gaussian, Inc.  The licensee
 of this program is prohibited from giving any competitor of
 Gaussian, Inc. access to this program.  By using this program,
 the user acknowledges that Gaussian, Inc. is engaged in the
 business of creating and licensing software in the field of
 computational chemistry and represents and warrants to the
 licensee that it is not a competitor of Gaussian, Inc. and that
 it will not use this program in any manner prohibited above.
 ---------------------------------------------------------------
  

 Cite this work as:
 Gaussian 16, Revision A.03,
 M. J. Frisch, G. W. Trucks, H. B. Schlegel, G. E. Scuseria, 
 M. A. Robb, J. R. Cheeseman, G. Scalmani, V. Barone, 
 G. A. Petersson, H. Nakatsuji, X. Li, M. Caricato, A. V. Marenich, 
 J. Bloino, B. G. Janesko, R. Gomperts, B. Mennucci, H. P. Hratchian, 
 J. V. Ortiz, A. F. Izmaylov, J. L. Sonnenberg, D. Williams-Young, 
 F. Ding, F. Lipparini, F. Egidi, J. Goings, B. Peng, A. Petrone, 
 T. Henderson, D. Ranasinghe, V. G. Zakrzewski, J. Gao, N. Rega, 
 G. Zheng, W. Liang, M. Hada, M. Ehara, K. Toyota, R. Fukuda, 
 J. Hasegawa, M. Ishida, T. Nakajima, Y. Honda, O. Kitao, H. Nakai, 
 T. Vreven, K. Throssell, J. A. Montgomery, Jr., J. E. Peralta, 
 F. Ogliaro, M. J. Bearpark, J. J. Heyd, E. N. Brothers, K. N. Kudin, 
 V. N. Staroverov, T. A. Keith, R. Kobayashi, J. Normand, 
 K. Raghavachari, A. P. Rendell, J. C. Burant, S. S. Iyengar, 
 J. Tomasi, M. Cossi, J. M. Millam, M. Klene, C. Adamo, R. Cammi, 
 J. W. Ochterski, R. L. Martin, K. Morokuma, O. Farkas, 
 J. B. Foresman, and D. J. Fox, Gaussian, Inc., Wallingford CT, 2016.
 
 ******************************************
 Gaussian 16:  EM64L-G16RevA.03 25-Dec-2016
                17-Sep-2021 
 ******************************************
 %chk=01-IsoP_2030_gaussian.chk
 %nproc=1
 Will use up to    1 processors via shared memory.
 %mem=4000Mb
 ---------------------
 #p opt mp2/6-31g(d,p)
 ---------------------
 1/18=20,19=15,38=1/1,3;
 2/9=110,12=2,17=6,18=5,40=1/2;
 3/5=1,6=6,7=101,11=9,25=1,30=1,71=1/1,2,3;
 4//1;
 5/5=2,38=5/2;
 8/6=4,10=2/1;
 9/15=2,16=-3/6;
 10/5=1/2;
 6/7=2,8=2,9=2,10=2/1;
 7/12=2/1,2,3,16;
 1/18=20,19=15/3(2);
 2/9=110/2;
 99//99;
 2/9=110/2;
 3/5=1,6=6,7=101,11=9,25=1,30=1,71=1/1,2,3;
 4/5=5,16=3,69=1/1;
 5/5=2,38=5/2;
 8/6=4,10=2/1;
 9/15=2,16=-3/6;
 10/5=1/2;
 7/12=2/1,2,3,16;
 1/18=20,19=15/3(-8);
 2/9=110/2;
 6/7=2,8=2,9=2,10=2/1;
 99//99;
 Leave Link    1 at Fri Sep 17 13:32:35 2021, MaxMem=   524288000 cpu:               0.0 elap:               0.1
 (Enter /opt/gaussian/g16_legacy/l101.exe)
 --------------------------------------------------
 Conformer number 2030. Energy MM = 23.242 kcal/mol
 --------------------------------------------------
 Symbolic Z-matrix:
 Charge =  0 Multiplicity = 1
 C                     0.8732   -0.3218    0.8064 
 H                     0.8643    0.7738    0.7602 
 H                     0.8851   -0.5581    1.879 
 C                     2.1309   -0.8718    0.1659 
 C                     2.603    -2.1928    0.7171 
 H                     3.5189   -2.5424    0.229 
 H                     1.8383   -2.9626    0.5738 
 H                     2.8122   -2.1042    1.7881 
 C                     2.8226   -0.2499   -0.8095 
 H                     3.7295   -0.7212   -1.1872 
 C                     2.4847    1.0423   -1.4834 
 H                     3.2354    1.7985   -1.2347 
 H                     2.4915    0.8998   -2.5689 
 H                     1.5002    1.4305   -1.213 
 C                    -3.683     1.0362    1.1251 
 H                    -3.6246    2.0956    1.3955 
 H                    -4.5834    0.8794    0.5222 
 H                    -3.7992    0.4628    2.0508 
 C                    -2.4588    0.6271    0.3482 
 C                    -2.2613    1.382    -0.9374 
 H                    -1.3056    1.171    -1.4225 
 H                    -2.2884    2.4605   -0.7477 
 H                    -3.0603    1.1366   -1.6444 
 C                    -1.6363   -0.3316    0.817 
 H                    -1.8733   -0.7966    1.7741 
 C                    -0.3981   -0.8816    0.1604 
 H                    -0.4225   -1.974     0.2623 
 H                    -0.3948   -0.6876   -0.9172 
 
 ITRead=  0  0  0  0  0  0  0  0  0  0  0  0  0  0  0  0  0  0  0  0
 ITRead=  0  0  0  0  0  0  0  0
 MicOpt= -1 -1 -1 -1 -1 -1 -1 -1 -1 -1 -1 -1 -1 -1 -1 -1 -1 -1 -1 -1
 MicOpt= -1 -1 -1 -1 -1 -1 -1 -1
 NAtoms=     28 NQM=       28 NQMF=       0 NMMI=      0 NMMIF=      0
                NMic=       0 NMicF=      0.
                    Isotopes and Nuclear Properties:
 (Nuclear quadrupole moments (NQMom) in fm**2, nuclear magnetic moments (NMagM)
  in nuclear magnetons)

  Atom         1           2           3           4           5           6           7           8           9          10
 IAtWgt=          12           1           1          12          12           1           1           1          12           1
 AtmWgt=  12.0000000   1.0078250   1.0078250  12.0000000  12.0000000   1.0078250   1.0078250   1.0078250  12.0000000   1.0078250
 NucSpn=           0           1           1           0           0           1           1           1           0           1
 AtZEff=  -0.0000000  -0.0000000  -0.0000000  -0.0000000  -0.0000000  -0.0000000  -0.0000000  -0.0000000  -0.0000000  -0.0000000
 NQMom=    0.0000000   0.0000000   0.0000000   0.0000000   0.0000000   0.0000000   0.0000000   0.0000000   0.0000000   0.0000000
 NMagM=    0.0000000   2.7928460   2.7928460   0.0000000   0.0000000   2.7928460   2.7928460   2.7928460   0.0000000   2.7928460
 AtZNuc=   6.0000000   1.0000000   1.0000000   6.0000000   6.0000000   1.0000000   1.0000000   1.0000000   6.0000000   1.0000000

  Atom        11          12          13          14          15          16          17          18          19          20
 IAtWgt=          12           1           1           1          12           1           1           1          12          12
 AtmWgt=  12.0000000   1.0078250   1.0078250   1.0078250  12.0000000   1.0078250   1.0078250   1.0078250  12.0000000  12.0000000
 NucSpn=           0           1           1           1           0           1           1           1           0           0
 AtZEff=  -0.0000000  -0.0000000  -0.0000000  -0.0000000  -0.0000000  -0.0000000  -0.0000000  -0.0000000  -0.0000000  -0.0000000
 NQMom=    0.0000000   0.0000000   0.0000000   0.0000000   0.0000000   0.0000000   0.0000000   0.0000000   0.0000000   0.0000000
 NMagM=    0.0000000   2.7928460   2.7928460   2.7928460   0.0000000   2.7928460   2.7928460   2.7928460   0.0000000   0.0000000
 AtZNuc=   6.0000000   1.0000000   1.0000000   1.0000000   6.0000000   1.0000000   1.0000000   1.0000000   6.0000000   6.0000000

  Atom        21          22          23          24          25          26          27          28
 IAtWgt=           1           1           1          12           1          12           1           1
 AtmWgt=   1.0078250   1.0078250   1.0078250  12.0000000   1.0078250  12.0000000   1.0078250   1.0078250
 NucSpn=           1           1           1           0           1           0           1           1
 AtZEff=  -0.0000000  -0.0000000  -0.0000000  -0.0000000  -0.0000000  -0.0000000  -0.0000000  -0.0000000
 NQMom=    0.0000000   0.0000000   0.0000000   0.0000000   0.0000000   0.0000000   0.0000000   0.0000000
 NMagM=    2.7928460   2.7928460   2.7928460   0.0000000   2.7928460   0.0000000   2.7928460   2.7928460
 AtZNuc=   1.0000000   1.0000000   1.0000000   6.0000000   1.0000000   6.0000000   1.0000000   1.0000000
 Leave Link  101 at Fri Sep 17 13:32:36 2021, MaxMem=   524288000 cpu:               0.3 elap:               0.5
 (Enter /opt/gaussian/g16_legacy/l103.exe)

 GradGradGradGradGradGradGradGradGradGradGradGradGradGradGradGradGradGrad
 Berny optimization.
 Initialization pass.
                           ----------------------------
                           !    Initial Parameters    !
                           ! (Angstroms and Degrees)  !
 --------------------------                            --------------------------
 ! Name  Definition              Value          Derivative Info.                !
 --------------------------------------------------------------------------------
 ! R1    R(1,2)                  1.0966         estimate D2E/DX2                !
 ! R2    R(1,3)                  1.0984         estimate D2E/DX2                !
 ! R3    R(1,4)                  1.5148         estimate D2E/DX2                !
 ! R4    R(1,26)                 1.532          estimate D2E/DX2                !
 ! R5    R(4,5)                  1.5072         estimate D2E/DX2                !
 ! R6    R(4,9)                  1.3478         estimate D2E/DX2                !
 ! R7    R(5,6)                  1.0951         estimate D2E/DX2                !
 ! R8    R(5,7)                  1.0945         estimate D2E/DX2                !
 ! R9    R(5,8)                  1.0948         estimate D2E/DX2                !
 ! R10   R(9,10)                 1.0896         estimate D2E/DX2                !
 ! R11   R(9,11)                 1.496          estimate D2E/DX2                !
 ! R12   R(11,12)                1.0942         estimate D2E/DX2                !
 ! R13   R(11,13)                1.0948         estimate D2E/DX2                !
 ! R14   R(11,14)                1.0923         estimate D2E/DX2                !
 ! R15   R(15,16)                1.0949         estimate D2E/DX2                !
 ! R16   R(15,17)                1.0949         estimate D2E/DX2                !
 ! R17   R(15,18)                1.0951         estimate D2E/DX2                !
 ! R18   R(15,19)                1.5065         estimate D2E/DX2                !
 ! R19   R(19,20)                1.5039         estimate D2E/DX2                !
 ! R20   R(19,24)                1.3474         estimate D2E/DX2                !
 ! R21   R(20,21)                1.0923         estimate D2E/DX2                !
 ! R22   R(20,22)                1.0954         estimate D2E/DX2                !
 ! R23   R(20,23)                1.0947         estimate D2E/DX2                !
 ! R24   R(24,25)                1.0902         estimate D2E/DX2                !
 ! R25   R(24,26)                1.5056         estimate D2E/DX2                !
 ! R26   R(26,27)                1.0974         estimate D2E/DX2                !
 ! R27   R(26,28)                1.0949         estimate D2E/DX2                !
 ! A1    A(2,1,3)              104.8426         estimate D2E/DX2                !
 ! A2    A(2,1,4)              110.5901         estimate D2E/DX2                !
 ! A3    A(2,1,26)             109.9121         estimate D2E/DX2                !
 ! A4    A(3,1,4)              109.014          estimate D2E/DX2                !
 ! A5    A(3,1,26)             110.0086         estimate D2E/DX2                !
 ! A6    A(4,1,26)             112.2121         estimate D2E/DX2                !
 ! A7    A(1,4,5)              115.0659         estimate D2E/DX2                !
 ! A8    A(1,4,9)              124.3724         estimate D2E/DX2                !
 ! A9    A(5,4,9)              120.5514         estimate D2E/DX2                !
 ! A10   A(4,5,6)              112.2563         estimate D2E/DX2                !
 ! A11   A(4,5,7)              110.4699         estimate D2E/DX2                !
 ! A12   A(4,5,8)              110.2836         estimate D2E/DX2                !
 ! A13   A(6,5,7)              107.5447         estimate D2E/DX2                !
 ! A14   A(6,5,8)              107.5791         estimate D2E/DX2                !
 ! A15   A(7,5,8)              108.5724         estimate D2E/DX2                !
 ! A16   A(4,9,10)             118.5825         estimate D2E/DX2                !
 ! A17   A(4,9,11)             127.4902         estimate D2E/DX2                !
 ! A18   A(10,9,11)            113.9195         estimate D2E/DX2                !
 ! A19   A(9,11,12)            109.8525         estimate D2E/DX2                !
 ! A20   A(9,11,13)            109.4384         estimate D2E/DX2                !
 ! A21   A(9,11,14)            113.5187         estimate D2E/DX2                !
 ! A22   A(12,11,13)           108.1223         estimate D2E/DX2                !
 ! A23   A(12,11,14)           108.4511         estimate D2E/DX2                !
 ! A24   A(13,11,14)           107.2957         estimate D2E/DX2                !
 ! A25   A(16,15,17)           108.567          estimate D2E/DX2                !
 ! A26   A(16,15,18)           107.6695         estimate D2E/DX2                !
 ! A27   A(16,15,19)           110.289          estimate D2E/DX2                !
 ! A28   A(17,15,18)           107.6515         estimate D2E/DX2                !
 ! A29   A(17,15,19)           110.2062         estimate D2E/DX2                !
 ! A30   A(18,15,19)           112.3314         estimate D2E/DX2                !
 ! A31   A(15,19,20)           114.2833         estimate D2E/DX2                !
 ! A32   A(15,19,24)           120.6535         estimate D2E/DX2                !
 ! A33   A(20,19,24)           125.0604         estimate D2E/DX2                !
 ! A34   A(19,20,21)           113.4266         estimate D2E/DX2                !
 ! A35   A(19,20,22)           110.0558         estimate D2E/DX2                !
 ! A36   A(19,20,23)           110.1028         estimate D2E/DX2                !
 ! A37   A(21,20,22)           106.7824         estimate D2E/DX2                !
 ! A38   A(21,20,23)           107.966          estimate D2E/DX2                !
 ! A39   A(22,20,23)           108.33           estimate D2E/DX2                !
 ! A40   A(19,24,25)           118.4417         estimate D2E/DX2                !
 ! A41   A(19,24,26)           127.6063         estimate D2E/DX2                !
 ! A42   A(25,24,26)           113.9448         estimate D2E/DX2                !
 ! A43   A(1,26,24)            111.413          estimate D2E/DX2                !
 ! A44   A(1,26,27)            110.0623         estimate D2E/DX2                !
 ! A45   A(1,26,28)            110.3506         estimate D2E/DX2                !
 ! A46   A(24,26,27)           107.7497         estimate D2E/DX2                !
 ! A47   A(24,26,28)           111.5284         estimate D2E/DX2                !
 ! A48   A(27,26,28)           105.5348         estimate D2E/DX2                !
 ! D1    D(2,1,4,5)            151.414          estimate D2E/DX2                !
 ! D2    D(2,1,4,9)            -27.4194         estimate D2E/DX2                !
 ! D3    D(3,1,4,5)             36.6491         estimate D2E/DX2                !
 ! D4    D(3,1,4,9)           -142.1843         estimate D2E/DX2                !
 ! D5    D(26,1,4,5)           -85.4666         estimate D2E/DX2                !
 ! D6    D(26,1,4,9)            95.7            estimate D2E/DX2                !
 ! D7    D(2,1,26,24)          -56.931          estimate D2E/DX2                !
 ! D8    D(2,1,26,27)         -176.3922         estimate D2E/DX2                !
 ! D9    D(2,1,26,28)           67.5317         estimate D2E/DX2                !
 ! D10   D(3,1,26,24)           58.0209         estimate D2E/DX2                !
 ! D11   D(3,1,26,27)          -61.4403         estimate D2E/DX2                !
 ! D12   D(3,1,26,28)         -177.5164         estimate D2E/DX2                !
 ! D13   D(4,1,26,24)          179.5689         estimate D2E/DX2                !
 ! D14   D(4,1,26,27)           60.1078         estimate D2E/DX2                !
 ! D15   D(4,1,26,28)          -55.9684         estimate D2E/DX2                !
 ! D16   D(1,4,5,6)           -179.4441         estimate D2E/DX2                !
 ! D17   D(1,4,5,7)             60.5272         estimate D2E/DX2                !
 ! D18   D(1,4,5,8)            -59.4998         estimate D2E/DX2                !
 ! D19   D(9,4,5,6)             -0.5622         estimate D2E/DX2                !
 ! D20   D(9,4,5,7)           -120.5909         estimate D2E/DX2                !
 ! D21   D(9,4,5,8)            119.3822         estimate D2E/DX2                !
 ! D22   D(1,4,9,10)           178.6039         estimate D2E/DX2                !
 ! D23   D(1,4,9,11)            -2.4816         estimate D2E/DX2                !
 ! D24   D(5,4,9,10)            -0.169          estimate D2E/DX2                !
 ! D25   D(5,4,9,11)           178.7454         estimate D2E/DX2                !
 ! D26   D(4,9,11,12)          113.6858         estimate D2E/DX2                !
 ! D27   D(4,9,11,13)         -127.7523         estimate D2E/DX2                !
 ! D28   D(4,9,11,14)           -7.9226         estimate D2E/DX2                !
 ! D29   D(10,9,11,12)         -67.357          estimate D2E/DX2                !
 ! D30   D(10,9,11,13)          51.2049         estimate D2E/DX2                !
 ! D31   D(10,9,11,14)         171.0346         estimate D2E/DX2                !
 ! D32   D(16,15,19,20)        -60.2556         estimate D2E/DX2                !
 ! D33   D(16,15,19,24)        119.1615         estimate D2E/DX2                !
 ! D34   D(17,15,19,20)         59.5993         estimate D2E/DX2                !
 ! D35   D(17,15,19,24)       -120.9837         estimate D2E/DX2                !
 ! D36   D(18,15,19,20)        179.6319         estimate D2E/DX2                !
 ! D37   D(18,15,19,24)         -0.951          estimate D2E/DX2                !
 ! D38   D(15,19,20,21)        172.3391         estimate D2E/DX2                !
 ! D39   D(15,19,20,22)         52.7898         estimate D2E/DX2                !
 ! D40   D(15,19,20,23)        -66.5593         estimate D2E/DX2                !
 ! D41   D(24,19,20,21)         -7.0482         estimate D2E/DX2                !
 ! D42   D(24,19,20,22)       -126.5976         estimate D2E/DX2                !
 ! D43   D(24,19,20,23)        114.0533         estimate D2E/DX2                !
 ! D44   D(15,19,24,25)         -0.5226         estimate D2E/DX2                !
 ! D45   D(15,19,24,26)        178.4297         estimate D2E/DX2                !
 ! D46   D(20,19,24,25)        178.8283         estimate D2E/DX2                !
 ! D47   D(20,19,24,26)         -2.2195         estimate D2E/DX2                !
 ! D48   D(19,24,26,1)         103.367          estimate D2E/DX2                !
 ! D49   D(19,24,26,27)       -135.8077         estimate D2E/DX2                !
 ! D50   D(19,24,26,28)        -20.4307         estimate D2E/DX2                !
 ! D51   D(25,24,26,1)         -77.641          estimate D2E/DX2                !
 ! D52   D(25,24,26,27)         43.1843         estimate D2E/DX2                !
 ! D53   D(25,24,26,28)        158.5612         estimate D2E/DX2                !
 --------------------------------------------------------------------------------
 Trust Radius=3.00D-01 FncErr=1.00D-07 GrdErr=1.00D-07 EigMax=2.50D+02 EigMin=1.00D-04
 Number of steps in this run=    138 maximum allowed number of steps=    168.
 GradGradGradGradGradGradGradGradGradGradGradGradGradGradGradGradGradGrad

 Leave Link  103 at Fri Sep 17 13:32:36 2021, MaxMem=   524288000 cpu:               0.0 elap:               0.1
 (Enter /opt/gaussian/g16_legacy/l202.exe)
                          Input orientation:                          
 ---------------------------------------------------------------------
 Center     Atomic      Atomic             Coordinates (Angstroms)
 Number     Number       Type             X           Y           Z
 ---------------------------------------------------------------------
      1          6           0        0.873200   -0.321800    0.806400
      2          1           0        0.864300    0.773800    0.760200
      3          1           0        0.885100   -0.558100    1.879000
      4          6           0        2.130900   -0.871800    0.165900
      5          6           0        2.603000   -2.192800    0.717100
      6          1           0        3.518900   -2.542400    0.229000
      7          1           0        1.838300   -2.962600    0.573800
      8          1           0        2.812200   -2.104200    1.788100
      9          6           0        2.822600   -0.249900   -0.809500
     10          1           0        3.729500   -0.721200   -1.187200
     11          6           0        2.484700    1.042300   -1.483400
     12          1           0        3.235400    1.798500   -1.234700
     13          1           0        2.491500    0.899800   -2.568900
     14          1           0        1.500200    1.430500   -1.213000
     15          6           0       -3.683000    1.036200    1.125100
     16          1           0       -3.624600    2.095600    1.395500
     17          1           0       -4.583400    0.879400    0.522200
     18          1           0       -3.799200    0.462800    2.050800
     19          6           0       -2.458800    0.627100    0.348200
     20          6           0       -2.261300    1.382000   -0.937400
     21          1           0       -1.305600    1.171000   -1.422500
     22          1           0       -2.288400    2.460500   -0.747700
     23          1           0       -3.060300    1.136600   -1.644400
     24          6           0       -1.636300   -0.331600    0.817000
     25          1           0       -1.873300   -0.796600    1.774100
     26          6           0       -0.398100   -0.881600    0.160400
     27          1           0       -0.422500   -1.974000    0.262300
     28          1           0       -0.394800   -0.687600   -0.917200
 ---------------------------------------------------------------------
                    Distance matrix (angstroms):
                    1          2          3          4          5
     1  C    0.000000
     2  H    1.096610   0.000000
     3  H    1.098385   1.739570   0.000000
     4  C    1.514777   2.159969   2.141293   0.000000
     5  C    2.549671   3.438844   2.640726   1.507230   0.000000
     6  H    3.502026   4.280918   3.687391   2.172885   1.095141
     7  H    2.821231   3.865761   2.897198   2.150219   1.094483
     8  H    2.810766   3.624055   2.472327   2.148142   1.094831
     9  C    2.533074   2.710509   3.328202   1.347818   2.480643
    10  H    3.506053   3.773164   4.185546   2.099781   2.657248
    11  C    3.114624   2.780563   4.052867   2.551302   3.914341
    12  H    3.773824   3.263702   4.557697   3.211246   4.487753
    13  H    3.937493   3.707636   4.948718   3.278373   4.513801
    14  H    2.746208   2.174659   3.727377   2.756761   4.250854
    15  C    4.764944   4.569458   4.896702   6.193703   7.078609
    16  H    5.140143   4.722392   5.254835   6.591142   7.591680
    17  H    5.594474   5.453919   5.814792   6.948056   7.817976
    18  H    4.898515   4.848773   4.797335   6.363968   7.058267
    19  C    3.494651   3.351755   3.863899   4.831695   5.806009
    20  C    3.971003   3.608480   4.647142   5.058489   6.259232
    21  H    3.455954   3.103291   4.323061   4.301811   5.583027
    22  H    4.489113   3.880494   5.107113   5.609733   6.908302
    23  H    4.858577   4.616948   5.554506   5.853154   6.981014
    24  C    2.509542   2.734618   2.745288   3.861029   4.630951
    25  H    2.950448   3.314906   2.770678   4.315736   4.806650
    26  C    1.531958   2.166509   2.169064   2.529025   3.322012
    27  H    2.169020   3.074762   2.515613   2.782802   3.067306
    28  H    2.170813   2.556305   3.077929   2.754305   3.731403
                    6          7          8          9         10
     6  H    0.000000
     7  H    1.766316   0.000000
     8  H    1.766985   1.777598   0.000000
     9  C    2.611297   3.200173   3.191561   0.000000
    10  H    2.316623   3.420765   3.406837   1.089609   0.000000
    11  C    4.105114   4.548530   4.550871   1.496028   2.178806
    12  H    4.589793   5.281158   4.954542   2.132403   2.568128
    13  H    4.553299   5.022088   5.301916   2.127657   2.463611
    14  H    4.683850   4.754608   4.818926   2.176074   3.098428
    15  C    8.091770   6.839524   7.244950   6.907935   7.961177
    16  H    8.596590   7.490251   7.695768   7.206232   8.287792
    17  H    8.800111   7.483439   8.074607   7.609046   8.636450
    18  H    8.118175   6.759904   7.097120   7.248275   8.280569
    19  C    6.767040   5.603741   6.108744   5.477461   6.516934
    20  C    7.083228   6.161655   6.732187   5.340926   6.354175
    21  H    6.308137   5.563809   6.163697   4.408714   5.384052
    22  H    7.727075   6.941616   7.299513   5.785534   6.821400
    23  H    7.767274   6.761666   7.534660   6.101471   7.054207
    24  C    5.639988   4.365106   4.886133   4.746996   5.741116
    25  H    5.874604   4.461866   4.864558   5.387518   6.337693
    26  C    4.255097   3.082685   3.801340   3.422376   4.344978
    27  H    3.982314   2.487082   3.578869   3.827787   4.572708
    28  H    4.480079   3.519296   4.428346   3.248822   4.133265
                   11         12         13         14         15
    11  C    0.000000
    12  H    1.094185   0.000000
    13  H    1.094835   1.772326   0.000000
    14  H    1.092271   1.773926   1.761472   0.000000
    15  C    6.696628   7.349423   7.196436   5.699802   0.000000
    16  H    6.835280   7.352946   7.386006   5.788800   1.094922
    17  H    7.348946   8.066293   7.720721   6.350183   1.094895
    18  H    7.232827   7.878084   7.817001   6.298609   1.095085
    19  C    5.288227   6.025086   5.752331   4.330875   1.506520
    20  C    4.789366   5.520468   5.048110   3.771895   2.528777
    21  H    3.792973   4.587996   3.975645   2.825552   3.487186
    22  H    5.033391   5.584602   5.347897   3.953593   2.735127
    23  H    5.548138   6.343643   5.633228   4.590277   2.840416
    24  C    4.915494   5.699146   5.478996   4.130802   2.480884
    25  H    5.743259   6.471958   6.386775   5.026255   2.656195
    26  C    3.835884   4.725628   4.355715   3.291744   3.924178
    27  H    4.538430   5.463790   4.976526   4.178984   4.520684
    28  H    3.406561   4.411332   3.684926   2.857424   4.237303
                   16         17         18         19         20
    16  H    0.000000
    17  H    1.777946   0.000000
    18  H    1.768033   1.767807   0.000000
    19  C    2.147654   2.146592   2.173134   0.000000
    20  C    2.794680   2.788402   3.484165   1.503878   0.000000
    21  H    3.764807   3.822416   4.333982   2.181989   1.092339
    22  H    2.551840   3.062605   3.755652   2.142753   1.095392
    23  H    3.237145   2.660853   3.828117   2.142860   1.094747
    24  C    3.190501   3.199817   2.613708   1.347362   2.530804
    25  H    3.402236   3.423576   2.317702   2.098314   3.499868
    26  C    4.560646   4.555080   4.116856   2.560845   3.130585
    27  H    5.300871   5.051983   4.531979   3.304484   4.010387
    28  H    4.850401   4.698056   4.660728   2.754954   2.787019
                   21         22         23         24         25
    21  H    0.000000
    22  H    1.756150   0.000000
    23  H    1.769010   1.775560   0.000000
    24  C    2.717081   3.266396   3.200293   0.000000
    25  H    3.796312   4.140107   4.102728   1.090153   0.000000
    26  C    2.746324   3.945569   3.797070   1.505577   2.188028
    27  H    3.675519   4.915941   4.502147   2.116242   2.403462
    28  H    2.130558   3.677633   3.310803   2.162292   3.072611
                   26         27         28
    26  C    0.000000
    27  H    1.097414   0.000000
    28  H    1.094929   1.745512   0.000000
 Stoichiometry    C10H18
 Framework group  C1[X(C10H18)]
 Deg. of freedom    78
 Full point group                 C1      NOp   1
 Largest Abelian subgroup         C1      NOp   1
 Largest concise Abelian subgroup C1      NOp   1
                         Standard orientation:                         
 ---------------------------------------------------------------------
 Center     Atomic      Atomic             Coordinates (Angstroms)
 Number     Number       Type             X           Y           Z
 ---------------------------------------------------------------------
      1          6           0        0.793821   -0.586489    0.589130
      2          1           0        0.484577    0.235279    1.246106
      3          1           0        0.745991   -1.484339    1.220024
      4          6           0        2.220918   -0.386950    0.122088
      5          6           0        2.975649   -1.655049   -0.184582
      6          1           0        4.003207   -1.458225   -0.508186
      7          1           0        2.478699   -2.212209   -0.984899
      8          1           0        3.025251   -2.291707    0.704722
      9          6           0        2.820210    0.813950   -0.001619
     10          1           0        3.860311    0.846693   -0.324674
     11          6           0        2.215747    2.161859    0.234737
     12          1           0        2.690852    2.635790    1.098974
     13          1           0        2.388757    2.797210   -0.639940
     14          1           0        1.137436    2.131991    0.406226
     15          6           0       -3.965106   -0.407941    0.429694
     16          1           0       -4.237052    0.181250    1.311598
     17          1           0       -4.709033   -0.227462   -0.353119
     18          1           0       -4.023674   -1.466014    0.705850
     19          6           0       -2.593388   -0.018254   -0.056242
     20          6           0       -2.466046    1.425898   -0.456063
     21          1           0       -1.439637    1.725936   -0.678927
     22          1           0       -2.815393    2.072714    0.356013
     23          1           0       -3.076424    1.626130   -1.342526
     24          6           0       -1.596334   -0.923557   -0.097413
     25          1           0       -1.803986   -1.940185    0.236928
     26          6           0       -0.185942   -0.715589   -0.581465
     27          1           0        0.084170   -1.577168   -1.205194
     28          1           0       -0.111222    0.157053   -1.238566
 ---------------------------------------------------------------------
 Rotational constants (GHZ):           2.2181280           0.5802304           0.4854223
 Leave Link  202 at Fri Sep 17 13:32:36 2021, MaxMem=   524288000 cpu:               0.1 elap:               0.2
 (Enter /opt/gaussian/g16_legacy/l301.exe)
 Standard basis: 6-31G(d,p) (6D, 7F)
 Ernie: Thresh=  0.10000D-02 Tol=  0.10000D-05 Strict=F.
 There are   240 symmetry adapted cartesian basis functions of A   symmetry.
 There are   240 symmetry adapted basis functions of A   symmetry.
   240 basis functions,   406 primitive gaussians,   240 cartesian basis functions
    39 alpha electrons       39 beta electrons
       nuclear repulsion energy       516.4374213007 Hartrees.
 IExCor=    0 DFT=F Ex=HF Corr=None ExCW=0 ScaHFX=  1.000000
 ScaDFX=  1.000000  1.000000  1.000000  1.000000 ScalE2=  1.000000  1.000000
 IRadAn=      5 IRanWt=     -1 IRanGd=            0 ICorTp=0 IEmpDi=  4
 NAtoms=   28 NActive=   28 NUniq=   28 SFac= 1.00D+00 NAtFMM=   60 NAOKFM=F Big=F
 Integral buffers will be    131072 words long.
 Raffenetti 1 integral format.
 Two-electron integral symmetry is turned on.
 Leave Link  301 at Fri Sep 17 13:32:37 2021, MaxMem=   524288000 cpu:               0.1 elap:               0.5
 (Enter /opt/gaussian/g16_legacy/l302.exe)
 NPDir=0 NMtPBC=     1 NCelOv=     1 NCel=       1 NClECP=     1 NCelD=      1
         NCelK=      1 NCelE2=     1 NClLst=     1 CellRange=     0.0.
 One-electron integrals computed using PRISM.
 One-electron integral symmetry used in STVInt
 NBasis=   240 RedAO= T EigKep=  2.10D-03  NBF=   240
 NBsUse=   240 1.00D-06 EigRej= -1.00D+00 NBFU=   240
 Leave Link  302 at Fri Sep 17 13:32:38 2021, MaxMem=   524288000 cpu:               0.3 elap:               0.8
 (Enter /opt/gaussian/g16_legacy/l303.exe)
 DipDrv:  MaxL=1.
 Leave Link  303 at Fri Sep 17 13:32:38 2021, MaxMem=   524288000 cpu:               0.1 elap:               0.3
 (Enter /opt/gaussian/g16_legacy/l401.exe)
 ExpMin= 1.61D-01 ExpMax= 3.05D+03 ExpMxC= 4.57D+02 IAcc=3 IRadAn=         5 AccDes= 0.00D+00
 Harris functional with IExCor=  205 and IRadAn=       5 diagonalized for initial guess.
 HarFok:  IExCor=  205 AccDes= 0.00D+00 IRadAn=         5 IDoV= 1 UseB2=F ITyADJ=14
 ICtDFT=  3500011 ScaDFX=  1.000000  1.000000  1.000000  1.000000
 FoFCou: FMM=F IPFlag=           0 FMFlag=      100000 FMFlg1=           0
         NFxFlg=           0 DoJE=T BraDBF=F KetDBF=T FulRan=T
         wScrn=  0.000000 ICntrl=       500 IOpCl=  0 I1Cent=   200000004 NGrid=           0
         NMat0=    1 NMatS0=      1 NMatT0=    0 NMatD0=    1 NMtDS0=    0 NMtDT0=    0
 Petite list used in FoFCou.
 Harris En= -390.109919371246    
 JPrj=0 DoOrth=F DoCkMO=F.
 Leave Link  401 at Fri Sep 17 13:32:50 2021, MaxMem=   524288000 cpu:              11.1 elap:              11.4
 (Enter /opt/gaussian/g16_legacy/l502.exe)
 Keep R1 ints in memory in canonical form, NReq=425198025.
 FoFCou: FMM=F IPFlag=           0 FMFlag=           0 FMFlg1=           0
         NFxFlg=           0 DoJE=F BraDBF=F KetDBF=F FulRan=T
         wScrn=  0.000000 ICntrl=       600 IOpCl=  0 I1Cent=           0 NGrid=           0
         NMat0=    1 NMatS0=  28920 NMatT0=    0 NMatD0=    1 NMtDS0=    0 NMtDT0=    0
 Symmetry not used in FoFCou.
 Two-electron integral symmetry not used.
 Closed shell SCF:
 Using DIIS extrapolation, IDIIS=  1040.
 NGot=   524288000 LenX=   105970886 LenY=   105912845
 Requested convergence on RMS density matrix=1.00D-08 within 128 cycles.
 Requested convergence on MAX density matrix=1.00D-06.
 Requested convergence on             energy=1.00D-06.
 No special actions if energy rises.

 Cycle   1  Pass 1  IDiag  1:
 E= -388.533164418906    
 DIIS: error= 5.21D-02 at cycle   1 NSaved=   1.
 NSaved= 1 IEnMin= 1 EnMin= -388.533164418906     IErMin= 1 ErrMin= 5.21D-02
 ErrMax= 5.21D-02  0.00D+00 EMaxC= 1.00D-01 BMatC= 8.07D-01 BMatP= 8.07D-01
 IDIUse=3 WtCom= 4.79D-01 WtEn= 5.21D-01
 Coeff-Com:  0.100D+01
 Coeff-En:   0.100D+01
 Coeff:      0.100D+01
 Gap=     0.508 Goal=   None    Shift=    0.000
 GapD=    0.508 DampG=2.000 DampE=0.500 DampFc=1.0000 IDamp=-1.
 RMSDP=4.00D-03 MaxDP=1.14D-01              OVMax= 1.33D-01

 Cycle   2  Pass 1  IDiag  1:
 E= -389.073875528167     Delta-E=       -0.540711109262 Rises=F Damp=F
 DIIS: error= 1.59D-02 at cycle   2 NSaved=   2.
 NSaved= 2 IEnMin= 2 EnMin= -389.073875528167     IErMin= 2 ErrMin= 1.59D-02
 ErrMax= 1.59D-02  0.00D+00 EMaxC= 1.00D-01 BMatC= 8.66D-02 BMatP= 8.07D-01
 IDIUse=3 WtCom= 8.41D-01 WtEn= 1.59D-01
 Coeff-Com:  0.183D+00 0.817D+00
 Coeff-En:   0.000D+00 0.100D+01
 Coeff:      0.154D+00 0.846D+00
 Gap=     0.549 Goal=   None    Shift=    0.000
 RMSDP=1.63D-03 MaxDP=3.04D-02 DE=-5.41D-01 OVMax= 4.61D-02

 Cycle   3  Pass 1  IDiag  1:
 E= -389.151438088898     Delta-E=       -0.077562560731 Rises=F Damp=F
 DIIS: error= 3.43D-03 at cycle   3 NSaved=   3.
 NSaved= 3 IEnMin= 3 EnMin= -389.151438088898     IErMin= 3 ErrMin= 3.43D-03
 ErrMax= 3.43D-03  0.00D+00 EMaxC= 1.00D-01 BMatC= 3.14D-03 BMatP= 8.66D-02
 IDIUse=3 WtCom= 9.66D-01 WtEn= 3.43D-02
 Coeff-Com: -0.245D-01 0.106D+00 0.919D+00
 Coeff-En:   0.000D+00 0.000D+00 0.100D+01
 Coeff:     -0.236D-01 0.102D+00 0.921D+00
 Gap=     0.499 Goal=   None    Shift=    0.000
 RMSDP=2.59D-04 MaxDP=7.14D-03 DE=-7.76D-02 OVMax= 1.01D-02

 Cycle   4  Pass 1  IDiag  1:
 E= -389.155063804923     Delta-E=       -0.003625716025 Rises=F Damp=F
 DIIS: error= 5.31D-04 at cycle   4 NSaved=   4.
 NSaved= 4 IEnMin= 4 EnMin= -389.155063804923     IErMin= 4 ErrMin= 5.31D-04
 ErrMax= 5.31D-04  0.00D+00 EMaxC= 1.00D-01 BMatC= 9.29D-05 BMatP= 3.14D-03
 IDIUse=3 WtCom= 9.95D-01 WtEn= 5.31D-03
 Coeff-Com: -0.424D-02-0.189D-02 0.950D-01 0.911D+00
 Coeff-En:   0.000D+00 0.000D+00 0.000D+00 0.100D+01
 Coeff:     -0.422D-02-0.188D-02 0.945D-01 0.912D+00
 Gap=     0.499 Goal=   None    Shift=    0.000
 RMSDP=7.39D-05 MaxDP=1.49D-03 DE=-3.63D-03 OVMax= 3.14D-03

 Cycle   5  Pass 1  IDiag  1:
 E= -389.155188144112     Delta-E=       -0.000124339189 Rises=F Damp=F
 DIIS: error= 1.63D-04 at cycle   5 NSaved=   5.
 NSaved= 5 IEnMin= 5 EnMin= -389.155188144112     IErMin= 5 ErrMin= 1.63D-04
 ErrMax= 1.63D-04  0.00D+00 EMaxC= 1.00D-01 BMatC= 1.60D-05 BMatP= 9.29D-05
 IDIUse=3 WtCom= 9.98D-01 WtEn= 1.63D-03
 Coeff-Com:  0.241D-02-0.152D-01-0.102D+00 0.176D+00 0.939D+00
 Coeff-En:   0.000D+00 0.000D+00 0.000D+00 0.000D+00 0.100D+01
 Coeff:      0.241D-02-0.152D-01-0.102D+00 0.175D+00 0.939D+00
 Gap=     0.500 Goal=   None    Shift=    0.000
 RMSDP=3.00D-05 MaxDP=6.56D-04 DE=-1.24D-04 OVMax= 9.22D-04

 Cycle   6  Pass 1  IDiag  1:
 E= -389.155209624596     Delta-E=       -0.000021480484 Rises=F Damp=F
 DIIS: error= 3.58D-05 at cycle   6 NSaved=   6.
 NSaved= 6 IEnMin= 6 EnMin= -389.155209624596     IErMin= 6 ErrMin= 3.58D-05
 ErrMax= 3.58D-05  0.00D+00 EMaxC= 1.00D-01 BMatC= 5.50D-07 BMatP= 1.60D-05
 IDIUse=1 WtCom= 1.00D+00 WtEn= 0.00D+00
 Coeff-Com:  0.720D-03-0.335D-02-0.261D-01-0.433D-02 0.177D+00 0.856D+00
 Coeff:      0.720D-03-0.335D-02-0.261D-01-0.433D-02 0.177D+00 0.856D+00
 Gap=     0.500 Goal=   None    Shift=    0.000
 RMSDP=5.30D-06 MaxDP=1.61D-04 DE=-2.15D-05 OVMax= 3.23D-04

 Cycle   7  Pass 1  IDiag  1:
 E= -389.155210465445     Delta-E=       -0.000000840849 Rises=F Damp=F
 DIIS: error= 1.03D-05 at cycle   7 NSaved=   7.
 NSaved= 7 IEnMin= 7 EnMin= -389.155210465445     IErMin= 7 ErrMin= 1.03D-05
 ErrMax= 1.03D-05  0.00D+00 EMaxC= 1.00D-01 BMatC= 5.44D-08 BMatP= 5.50D-07
 IDIUse=1 WtCom= 1.00D+00 WtEn= 0.00D+00
 Coeff-Com: -0.494D-04 0.463D-03 0.301D-02-0.105D-01-0.468D-01 0.145D+00
 Coeff-Com:  0.909D+00
 Coeff:     -0.494D-04 0.463D-03 0.301D-02-0.105D-01-0.468D-01 0.145D+00
 Coeff:      0.909D+00
 Gap=     0.500 Goal=   None    Shift=    0.000
 RMSDP=1.71D-06 MaxDP=4.10D-05 DE=-8.41D-07 OVMax= 8.41D-05

 Cycle   8  Pass 1  IDiag  1:
 E= -389.155210554358     Delta-E=       -0.000000088913 Rises=F Damp=F
 DIIS: error= 3.51D-06 at cycle   8 NSaved=   8.
 NSaved= 8 IEnMin= 8 EnMin= -389.155210554358     IErMin= 8 ErrMin= 3.51D-06
 ErrMax= 3.51D-06  0.00D+00 EMaxC= 1.00D-01 BMatC= 5.09D-09 BMatP= 5.44D-08
 IDIUse=1 WtCom= 1.00D+00 WtEn= 0.00D+00
 Coeff-Com: -0.581D-04 0.249D-03 0.207D-02 0.315D-02-0.171D-01-0.803D-01
 Coeff-Com: -0.123D+00 0.121D+01
 Coeff:     -0.581D-04 0.249D-03 0.207D-02 0.315D-02-0.171D-01-0.803D-01
 Coeff:     -0.123D+00 0.121D+01
 Gap=     0.500 Goal=   None    Shift=    0.000
 RMSDP=7.85D-07 MaxDP=2.40D-05 DE=-8.89D-08 OVMax= 5.81D-05

 Cycle   9  Pass 1  IDiag  1:
 E= -389.155210570221     Delta-E=       -0.000000015863 Rises=F Damp=F
 DIIS: error= 1.46D-06 at cycle   9 NSaved=   9.
 NSaved= 9 IEnMin= 9 EnMin= -389.155210570221     IErMin= 9 ErrMin= 1.46D-06
 ErrMax= 1.46D-06  0.00D+00 EMaxC= 1.00D-01 BMatC= 7.39D-10 BMatP= 5.09D-09
 IDIUse=1 WtCom= 1.00D+00 WtEn= 0.00D+00
 Coeff-Com:  0.928D-05-0.690D-04-0.480D-03 0.144D-02 0.385D-02 0.886D-04
 Coeff-Com: -0.865D-01-0.120D+00 0.120D+01
 Coeff:      0.928D-05-0.690D-04-0.480D-03 0.144D-02 0.385D-02 0.886D-04
 Coeff:     -0.865D-01-0.120D+00 0.120D+01
 Gap=     0.500 Goal=   None    Shift=    0.000
 RMSDP=2.99D-07 MaxDP=1.24D-05 DE=-1.59D-08 OVMax= 2.71D-05

 Cycle  10  Pass 1  IDiag  1:
 E= -389.155210572644     Delta-E=       -0.000000002423 Rises=F Damp=F
 DIIS: error= 3.97D-07 at cycle  10 NSaved=  10.
 NSaved=10 IEnMin=10 EnMin= -389.155210572644     IErMin=10 ErrMin= 3.97D-07
 ErrMax= 3.97D-07  0.00D+00 EMaxC= 1.00D-01 BMatC= 1.21D-10 BMatP= 7.39D-10
 IDIUse=1 WtCom= 1.00D+00 WtEn= 0.00D+00
 Coeff-Com:  0.952D-05-0.464D-04-0.369D-03-0.135D-03 0.233D-02 0.142D-01
 Coeff-Com:  0.595D-02-0.211D+00 0.143D+00 0.105D+01
 Coeff:      0.952D-05-0.464D-04-0.369D-03-0.135D-03 0.233D-02 0.142D-01
 Coeff:      0.595D-02-0.211D+00 0.143D+00 0.105D+01
 Gap=     0.500 Goal=   None    Shift=    0.000
 RMSDP=1.24D-07 MaxDP=3.06D-06 DE=-2.42D-09 OVMax= 9.88D-06

 Cycle  11  Pass 1  IDiag  1:
 E= -389.155210572959     Delta-E=       -0.000000000316 Rises=F Damp=F
 DIIS: error= 1.55D-07 at cycle  11 NSaved=  11.
 NSaved=11 IEnMin=11 EnMin= -389.155210572959     IErMin=11 ErrMin= 1.55D-07
 ErrMax= 1.55D-07  0.00D+00 EMaxC= 1.00D-01 BMatC= 9.54D-12 BMatP= 1.21D-10
 IDIUse=1 WtCom= 1.00D+00 WtEn= 0.00D+00
 Coeff-Com:  0.395D-06 0.836D-06 0.988D-06-0.149D-03-0.305D-03 0.278D-02
 Coeff-Com:  0.110D-01-0.153D-01-0.107D+00 0.164D+00 0.945D+00
 Coeff:      0.395D-06 0.836D-06 0.988D-06-0.149D-03-0.305D-03 0.278D-02
 Coeff:      0.110D-01-0.153D-01-0.107D+00 0.164D+00 0.945D+00
 Gap=     0.500 Goal=   None    Shift=    0.000
 RMSDP=2.76D-08 MaxDP=1.16D-06 DE=-3.16D-10 OVMax= 2.51D-06

 Cycle  12  Pass 1  IDiag  1:
 E= -389.155210572980     Delta-E=       -0.000000000020 Rises=F Damp=F
 DIIS: error= 3.64D-08 at cycle  12 NSaved=  12.
 NSaved=12 IEnMin=12 EnMin= -389.155210572980     IErMin=12 ErrMin= 3.64D-08
 ErrMax= 3.64D-08  0.00D+00 EMaxC= 1.00D-01 BMatC= 1.17D-12 BMatP= 9.54D-12
 IDIUse=1 WtCom= 1.00D+00 WtEn= 0.00D+00
 Coeff-Com: -0.102D-05 0.547D-05 0.429D-04 0.324D-05-0.342D-03-0.126D-02
 Coeff-Com:  0.366D-03 0.217D-01-0.321D-01-0.113D+00 0.983D-01 0.103D+01
 Coeff:     -0.102D-05 0.547D-05 0.429D-04 0.324D-05-0.342D-03-0.126D-02
 Coeff:      0.366D-03 0.217D-01-0.321D-01-0.113D+00 0.983D-01 0.103D+01
 Gap=     0.500 Goal=   None    Shift=    0.000
 RMSDP=1.18D-08 MaxDP=3.33D-07 DE=-2.02D-11 OVMax= 8.46D-07

 Cycle  13  Pass 1  IDiag  1:
 E= -389.155210572988     Delta-E=       -0.000000000008 Rises=F Damp=F
 DIIS: error= 1.06D-08 at cycle  13 NSaved=  13.
 NSaved=13 IEnMin=13 EnMin= -389.155210572988     IErMin=13 ErrMin= 1.06D-08
 ErrMax= 1.06D-08  0.00D+00 EMaxC= 1.00D-01 BMatC= 5.47D-14 BMatP= 1.17D-12
 IDIUse=1 WtCom= 1.00D+00 WtEn= 0.00D+00
 Coeff-Com: -0.122D-06 0.462D-06 0.389D-05 0.136D-04-0.170D-04-0.298D-03
 Coeff-Com: -0.849D-03 0.352D-02 0.516D-02-0.213D-01-0.612D-01 0.111D+00
 Coeff-Com:  0.964D+00
 Coeff:     -0.122D-06 0.462D-06 0.389D-05 0.136D-04-0.170D-04-0.298D-03
 Coeff:     -0.849D-03 0.352D-02 0.516D-02-0.213D-01-0.612D-01 0.111D+00
 Coeff:      0.964D+00
 Gap=     0.500 Goal=   None    Shift=    0.000
 RMSDP=2.13D-09 MaxDP=7.02D-08 DE=-7.84D-12 OVMax= 1.05D-07

 SCF Done:  E(RHF) =  -389.155210573     A.U. after   13 cycles
            NFock= 13  Conv=0.21D-08     -V/T= 2.0014
 KE= 3.886263753379D+02 PE=-1.937508997722D+03 EE= 6.432899905108D+02
 Leave Link  502 at Fri Sep 17 13:33:28 2021, MaxMem=   524288000 cpu:              38.1 elap:              38.3
 (Enter /opt/gaussian/g16_legacy/l801.exe)
 ExpMin= 1.61D-01 ExpMax= 3.05D+03 ExpMxC= 4.57D+02 IAcc=3 IRadAn=         5 AccDes= 0.00D+00
 HarFok:  IExCor=  205 AccDes= 0.00D+00 IRadAn=         5 IDoV=-2 UseB2=F ITyADJ=14
 ICtDFT= 12500011 ScaDFX=  1.000000  1.000000  1.000000  1.000000
 Largest valence mixing into a core orbital is  1.98D-04
 Largest core mixing into a valence orbital is  3.52D-05
 Range of M.O.s used for correlation:    11   240
 NBasis=   240 NAE=    39 NBE=    39 NFC=    10 NFV=     0
 NROrb=    230 NOA=    29 NOB=    29 NVA=   201 NVB=   201
 Leave Link  801 at Fri Sep 17 13:33:30 2021, MaxMem=   524288000 cpu:               1.6 elap:               1.6
 (Enter /opt/gaussian/g16_legacy/l906.exe)
 Frozen-core derivative calculation, NFC=  10 NFV=   0.
 FulOut=F Deriv=T AODrv=T NAtomX=    28
   MMem=          88  MDisk=          29 MDiskD=          29
  W3Min=     2246400 MinDsk=     2795480 NBas6D=         240
 NBas2D=       29244    NTT=       28920    LW2=     2040000
    MDV=   523626386 MDiskM=       30186 NBas2p=       24383
 Fully direct method using O(ONN) memory.
 IMap=   1   2   3   4   5   6   7   8   9  10  11  12  13  14  15  16  17  18  19  20
 IMap=  21  22  23  24  25  26  27  28  29  30  31  32  33  34  35  36  37  38  39
 JobTyp=1 Pass  1:  I=  11 to  39 NPSUse=  1 ParTrn=F ParDer=F DoDerP=T.
 Spin components of T(2) and E(2):
     alpha-alpha T2 =       0.5715121349D-01 E2=     -0.1638030500D+00
     alpha-beta  T2 =       0.3618115581D+00 E2=     -0.1089335592D+01
     beta-beta   T2 =       0.5715121349D-01 E2=     -0.1638030500D+00
 The integrals were generated   1 times.
 ANorm=    0.1214954314D+01
 E2 =    -0.1416941692D+01 EUMP2 =    -0.39057215226475D+03
 Leave Link  906 at Fri Sep 17 13:38:06 2021, MaxMem=   524288000 cpu:             276.1 elap:             276.3
 (Enter /opt/gaussian/g16_legacy/l1002.exe)
 Minotr:  Closed shell wavefunction.
          Computing MP2/KS-MP2 derivatives.
          Using Z-Vector for PSCF gradient.
          Skipping F1 and S1 gradient terms here.
          IDoAtm=1111111111111111111111111111
          Frozen-core window.
          Direct CPHF calculation.
          Differentiating once with respect to electric field.
                with respect to dipole field.
          Differentiating once with respect to nuclear coordinates.
          Requested convergence is 1.0D-10 RMS, and 1.0D-09 maximum.
          NewPWx=F KeepS1=T KeepF1=T KeepIn=T MapXYZ=F SortEE=F KeepMc=T.
 Keep R1 ints in memory in canonical form, NReq=425201067.
 FoFCou: FMM=F IPFlag=           0 FMFlag=           0 FMFlg1=           0
         NFxFlg=           0 DoJE=F BraDBF=F KetDBF=F FulRan=T
         wScrn=  0.000000 ICntrl=       600 IOpCl=  0 I1Cent=           0 NGrid=           0
         NMat0=    1 NMatS0=  28920 NMatT0=    0 NMatD0=    1 NMtDS0=    0 NMtDT0=    0
 Symmetry not used in FoFCou.
 Two-electron integral symmetry not used.
          MDV=     524288000 using IRadAn=       5.
          Solving linear equations separately, MaxMat=       0.
          There are     1 degrees of freedom in the 1st order CPHF.  IDoFFX=0 NUNeed=     1.
 LinEq1:  Iter=  0 NonCon=     1 RMS=2.55D-03 Max=3.76D-02 NDo=     1
 AX will form     1 AO Fock derivatives at one time.
 LinEq1:  Iter=  1 NonCon=     1 RMS=6.90D-04 Max=9.74D-03 NDo=     1
 LinEq1:  Iter=  2 NonCon=     1 RMS=1.61D-04 Max=4.14D-03 NDo=     1
 LinEq1:  Iter=  3 NonCon=     1 RMS=4.31D-05 Max=5.07D-04 NDo=     1
 LinEq1:  Iter=  4 NonCon=     1 RMS=1.99D-05 Max=8.55D-04 NDo=     1
 LinEq1:  Iter=  5 NonCon=     1 RMS=5.06D-06 Max=8.27D-05 NDo=     1
 LinEq1:  Iter=  6 NonCon=     1 RMS=1.63D-06 Max=2.68D-05 NDo=     1
 LinEq1:  Iter=  7 NonCon=     1 RMS=4.13D-07 Max=4.18D-06 NDo=     1
 LinEq1:  Iter=  8 NonCon=     1 RMS=1.01D-07 Max=1.86D-06 NDo=     1
 LinEq1:  Iter=  9 NonCon=     1 RMS=2.33D-08 Max=6.32D-07 NDo=     1
 LinEq1:  Iter= 10 NonCon=     1 RMS=6.41D-09 Max=1.62D-07 NDo=     1
 LinEq1:  Iter= 11 NonCon=     1 RMS=1.89D-09 Max=3.62D-08 NDo=     1
 LinEq1:  Iter= 12 NonCon=     1 RMS=4.06D-10 Max=5.82D-09 NDo=     1
 LinEq1:  Iter= 13 NonCon=     1 RMS=1.01D-10 Max=1.82D-09 NDo=     1
 LinEq1:  Iter= 14 NonCon=     0 RMS=3.04D-11 Max=6.76D-10 NDo=     1
 Linear equations converged to 1.000D-10 1.000D-09 after    14 iterations.
 End of Minotr F.D. properties file   721 does not exist.
 End of Minotr F.D. properties file   722 does not exist.
 End of Minotr F.D. properties file   788 does not exist.
 Leave Link 1002 at Fri Sep 17 13:38:47 2021, MaxMem=   524288000 cpu:              41.6 elap:              41.6
 (Enter /opt/gaussian/g16_legacy/l601.exe)
 Copying SCF densities to generalized density rwf, IOpCl= 0 IROHF=0.

 **********************************************************************

            Population analysis using the SCF density.

 **********************************************************************

 Orbital symmetries:
       Occupied  (A) (A) (A) (A) (A) (A) (A) (A) (A) (A) (A) (A)
                 (A) (A) (A) (A) (A) (A) (A) (A) (A) (A) (A) (A)
                 (A) (A) (A) (A) (A) (A) (A) (A) (A) (A) (A) (A)
                 (A) (A) (A)
       Virtual   (A) (A) (A) (A) (A) (A) (A) (A) (A) (A) (A) (A)
                 (A) (A) (A) (A) (A) (A) (A) (A) (A) (A) (A) (A)
                 (A) (A) (A) (A) (A) (A) (A) (A) (A) (A) (A) (A)
                 (A) (A) (A) (A) (A) (A) (A) (A) (A) (A) (A) (A)
                 (A) (A) (A) (A) (A) (A) (A) (A) (A) (A) (A) (A)
                 (A) (A) (A) (A) (A) (A) (A) (A) (A) (A) (A) (A)
                 (A) (A) (A) (A) (A) (A) (A) (A) (A) (A) (A) (A)
                 (A) (A) (A) (A) (A) (A) (A) (A) (A) (A) (A) (A)
                 (A) (A) (A) (A) (A) (A) (A) (A) (A) (A) (A) (A)
                 (A) (A) (A) (A) (A) (A) (A) (A) (A) (A) (A) (A)
                 (A) (A) (A) (A) (A) (A) (A) (A) (A) (A) (A) (A)
                 (A) (A) (A) (A) (A) (A) (A) (A) (A) (A) (A) (A)
                 (A) (A) (A) (A) (A) (A) (A) (A) (A) (A) (A) (A)
                 (A) (A) (A) (A) (A) (A) (A) (A) (A) (A) (A) (A)
                 (A) (A) (A) (A) (A) (A) (A) (A) (A) (A) (A) (A)
                 (A) (A) (A) (A) (A) (A) (A) (A) (A) (A) (A) (A)
                 (A) (A) (A) (A) (A) (A) (A) (A) (A)
 The electronic state is 1-A.
 Alpha  occ. eigenvalues --  -11.23060 -11.22505 -11.22000 -11.21921 -11.21883
 Alpha  occ. eigenvalues --  -11.21649 -11.21553 -11.21485 -11.21455 -11.21438
 Alpha  occ. eigenvalues --   -1.10624  -1.08328  -1.01912  -0.98014  -0.93647
 Alpha  occ. eigenvalues --   -0.91776  -0.86755  -0.82685  -0.70599  -0.69343
 Alpha  occ. eigenvalues --   -0.64584  -0.61545  -0.60102  -0.59031  -0.58089
 Alpha  occ. eigenvalues --   -0.56803  -0.55368  -0.55149  -0.53549  -0.51981
 Alpha  occ. eigenvalues --   -0.51716  -0.51320  -0.50593  -0.49230  -0.48275
 Alpha  occ. eigenvalues --   -0.46013  -0.44272  -0.33356  -0.31525
 Alpha virt. eigenvalues --    0.18456   0.19493   0.22038   0.24453   0.25183
 Alpha virt. eigenvalues --    0.27141   0.28395   0.28932   0.30250   0.30504
 Alpha virt. eigenvalues --    0.31237   0.32118   0.33136   0.33436   0.34032
 Alpha virt. eigenvalues --    0.35677   0.35774   0.36971   0.38998   0.40649
 Alpha virt. eigenvalues --    0.41064   0.42595   0.43321   0.44192   0.45150
 Alpha virt. eigenvalues --    0.51685   0.54046   0.61172   0.62445   0.70139
 Alpha virt. eigenvalues --    0.71101   0.71887   0.74281   0.76417   0.76616
 Alpha virt. eigenvalues --    0.76876   0.78795   0.79454   0.81139   0.82036
 Alpha virt. eigenvalues --    0.83811   0.85655   0.88079   0.91266   0.92026
 Alpha virt. eigenvalues --    0.92896   0.95179   0.97058   0.98263   0.99207
 Alpha virt. eigenvalues --    0.99752   1.00202   1.02302   1.03925   1.06182
 Alpha virt. eigenvalues --    1.07863   1.08639   1.08809   1.11198   1.12391
 Alpha virt. eigenvalues --    1.12561   1.13431   1.14583   1.14927   1.15820
 Alpha virt. eigenvalues --    1.16165   1.16405   1.18226   1.18706   1.20092
 Alpha virt. eigenvalues --    1.20661   1.22066   1.22854   1.25019   1.27543
 Alpha virt. eigenvalues --    1.34169   1.40672   1.41849   1.43739   1.45171
 Alpha virt. eigenvalues --    1.47558   1.53479   1.56257   1.56980   1.58247
 Alpha virt. eigenvalues --    1.59851   1.62719   1.65798   1.69519   1.70790
 Alpha virt. eigenvalues --    1.75332   1.82525   1.92036   1.92195   1.95502
 Alpha virt. eigenvalues --    1.98632   2.01126   2.02848   2.04184   2.08704
 Alpha virt. eigenvalues --    2.09247   2.11123   2.11380   2.13102   2.14507
 Alpha virt. eigenvalues --    2.15426   2.17688   2.19725   2.23578   2.27383
 Alpha virt. eigenvalues --    2.28339   2.29997   2.32204   2.34975   2.35569
 Alpha virt. eigenvalues --    2.35647   2.35783   2.39327   2.39855   2.40351
 Alpha virt. eigenvalues --    2.41285   2.41831   2.43036   2.45161   2.45386
 Alpha virt. eigenvalues --    2.47035   2.48340   2.49337   2.50340   2.54523
 Alpha virt. eigenvalues --    2.56587   2.57720   2.61272   2.62185   2.64354
 Alpha virt. eigenvalues --    2.66343   2.67161   2.72032   2.72995   2.73745
 Alpha virt. eigenvalues --    2.75720   2.77702   2.81091   2.82804   2.85160
 Alpha virt. eigenvalues --    2.87731   2.89154   2.91920   2.93444   2.94437
 Alpha virt. eigenvalues --    2.97095   2.99039   3.01167   3.02602   3.05102
 Alpha virt. eigenvalues --    3.05824   3.06634   3.08509   3.13018   3.15942
 Alpha virt. eigenvalues --    3.17140   3.18167   3.19613   3.20685   3.21265
 Alpha virt. eigenvalues --    3.23194   3.24414   3.26462   3.27246   3.36670
 Alpha virt. eigenvalues --    3.39077   3.44608   3.45622   3.55556   3.57304
 Alpha virt. eigenvalues --    3.58694   3.61057   3.66889   3.73951   3.78201
 Alpha virt. eigenvalues --    3.78870   3.80513   3.81325   3.82338   3.82844
 Alpha virt. eigenvalues --    3.84214   3.85754   3.87660   3.89511   3.91175
 Alpha virt. eigenvalues --    3.95898   4.59097   4.62634   4.74429   4.82816
 Alpha virt. eigenvalues --    4.88837   4.92669   4.93352   5.07551   5.10289
 Alpha virt. eigenvalues --    5.16870
          Condensed to atoms (all electrons):
               1          2          3          4          5          6
     1  C    5.001845   0.412350   0.413507   0.340283  -0.058755   0.003677
     2  H    0.412350   0.571700  -0.030233  -0.040530   0.003238  -0.000103
     3  H    0.413507  -0.030233   0.588527  -0.045059  -0.004694   0.000081
     4  C    0.340283  -0.040530  -0.045059   4.955065   0.349348  -0.041407
     5  C   -0.058755   0.003238  -0.004694   0.349348   4.896428   0.406178
     6  H    0.003677  -0.000103   0.000081  -0.041407   0.406178   0.571041
     7  H   -0.000531  -0.000030  -0.000276  -0.045808   0.400289  -0.028080
     8  H   -0.003553  -0.000016   0.002571  -0.043066   0.397387  -0.027609
     9  C   -0.044051  -0.002232   0.001919   0.698844  -0.045927  -0.002738
    10  H    0.003080   0.000060  -0.000114  -0.036529  -0.006481   0.002222
    11  C   -0.007063  -0.002135   0.000138  -0.050685   0.003424   0.000137
    12  H    0.000227   0.000172   0.000028  -0.001413  -0.000116  -0.000004
    13  H    0.000232  -0.000034  -0.000010   0.000593  -0.000100  -0.000009
    14  H   -0.001827  -0.001333   0.000004  -0.000419   0.000092   0.000004
    15  C   -0.000101  -0.000042  -0.000000   0.000002  -0.000000   0.000000
    16  H    0.000022  -0.000005  -0.000001  -0.000000   0.000000  -0.000000
    17  H   -0.000004   0.000001   0.000000   0.000000  -0.000000   0.000000
    18  H   -0.000003  -0.000002   0.000002   0.000000  -0.000000   0.000000
    19  C   -0.003608   0.001046   0.000615   0.000006  -0.000002   0.000000
    20  C    0.000597   0.000160  -0.000016  -0.000017  -0.000000  -0.000000
    21  H   -0.000053  -0.000052  -0.000012  -0.000027  -0.000000   0.000000
    22  H    0.000077  -0.000076  -0.000001  -0.000002   0.000000  -0.000000
    23  H   -0.000041   0.000014   0.000000   0.000001  -0.000000   0.000000
    24  C   -0.063058  -0.000807  -0.000608   0.006130  -0.000158   0.000003
    25  H    0.000004   0.000213   0.001004  -0.000155   0.000010  -0.000000
    26  C    0.326224  -0.039859  -0.044607  -0.057357  -0.000187  -0.000097
    27  H   -0.045131   0.004291  -0.002605  -0.001850  -0.000392  -0.000025
    28  H   -0.040301  -0.002145   0.004204  -0.001437   0.000317  -0.000010
               7          8          9         10         11         12
     1  C   -0.000531  -0.003553  -0.044051   0.003080  -0.007063   0.000227
     2  H   -0.000030  -0.000016  -0.002232   0.000060  -0.002135   0.000172
     3  H   -0.000276   0.002571   0.001919  -0.000114   0.000138   0.000028
     4  C   -0.045808  -0.043066   0.698844  -0.036529  -0.050685  -0.001413
     5  C    0.400289   0.397387  -0.045927  -0.006481   0.003424  -0.000116
     6  H   -0.028080  -0.027609  -0.002738   0.002222   0.000137  -0.000004
     7  H    0.594756  -0.035016  -0.001034   0.000123  -0.000100  -0.000005
     8  H   -0.035016   0.593602  -0.000425   0.000248  -0.000114   0.000021
     9  C   -0.001034  -0.000425   4.939927   0.404880   0.337717  -0.044357
    10  H    0.000123   0.000248   0.404880   0.559339  -0.043639  -0.000222
    11  C   -0.000100  -0.000114   0.337717  -0.043639   4.906235   0.400028
    12  H   -0.000005   0.000021  -0.044357  -0.000222   0.400028   0.584260
    13  H    0.000015  -0.000004  -0.042842  -0.002647   0.403005  -0.033283
    14  H    0.000000  -0.000001  -0.041938   0.003315   0.408018  -0.026856
    15  C   -0.000000  -0.000000  -0.000000   0.000000  -0.000000   0.000000
    16  H    0.000000  -0.000000  -0.000000  -0.000000   0.000000  -0.000000
    17  H    0.000000   0.000000   0.000000   0.000000  -0.000000   0.000000
    18  H   -0.000000  -0.000000  -0.000000   0.000000   0.000000  -0.000000
    19  C    0.000000   0.000000   0.000001   0.000000   0.000007  -0.000000
    20  C   -0.000000  -0.000000   0.000010  -0.000000  -0.000097   0.000002
    21  H    0.000000  -0.000000  -0.000032   0.000000   0.000040  -0.000008
    22  H    0.000000  -0.000000   0.000000  -0.000000  -0.000003  -0.000000
    23  H    0.000000   0.000000   0.000000   0.000000   0.000002   0.000000
    24  C   -0.000086   0.000001   0.000070   0.000002  -0.000032   0.000002
    25  H    0.000012  -0.000002  -0.000002  -0.000000   0.000000   0.000000
    26  C    0.000810   0.000027  -0.004367  -0.000116   0.000690  -0.000050
    27  H   -0.000187   0.000093   0.000514   0.000004  -0.000030  -0.000000
    28  H   -0.000009   0.000012   0.001216  -0.000044   0.000070   0.000023
              13         14         15         16         17         18
     1  C    0.000232  -0.001827  -0.000101   0.000022  -0.000004  -0.000003
     2  H   -0.000034  -0.001333  -0.000042  -0.000005   0.000001  -0.000002
     3  H   -0.000010   0.000004  -0.000000  -0.000001   0.000000   0.000002
     4  C    0.000593  -0.000419   0.000002  -0.000000   0.000000   0.000000
     5  C   -0.000100   0.000092  -0.000000   0.000000  -0.000000  -0.000000
     6  H   -0.000009   0.000004   0.000000  -0.000000   0.000000   0.000000
     7  H    0.000015   0.000000  -0.000000   0.000000   0.000000  -0.000000
     8  H   -0.000004  -0.000001  -0.000000  -0.000000   0.000000  -0.000000
     9  C   -0.042842  -0.041938  -0.000000  -0.000000   0.000000  -0.000000
    10  H   -0.002647   0.003315   0.000000  -0.000000   0.000000   0.000000
    11  C    0.403005   0.408018  -0.000000   0.000000  -0.000000   0.000000
    12  H   -0.033283  -0.026856   0.000000  -0.000000   0.000000  -0.000000
    13  H    0.586806  -0.030015  -0.000000   0.000000  -0.000000  -0.000000
    14  H   -0.030015   0.573897   0.000000  -0.000000  -0.000000  -0.000000
    15  C   -0.000000   0.000000   4.903236   0.396993   0.399268   0.405428
    16  H    0.000000  -0.000000   0.396993   0.594301  -0.034903  -0.027369
    17  H   -0.000000  -0.000000   0.399268  -0.034903   0.593055  -0.027561
    18  H   -0.000000  -0.000000   0.405428  -0.027369  -0.027561   0.568030
    19  C    0.000000  -0.000013   0.352288  -0.044301  -0.045763  -0.040395
    20  C   -0.000004   0.000010  -0.065388  -0.002140  -0.001105   0.003696
    21  H    0.000042   0.000571   0.003679  -0.000072  -0.000023  -0.000108
    22  H    0.000000   0.000034  -0.003431   0.002847  -0.000507   0.000010
    23  H   -0.000000  -0.000006  -0.001685  -0.000371   0.002553  -0.000079
    24  C   -0.000004   0.000003  -0.044860  -0.000547  -0.001135  -0.002386
    25  H    0.000000  -0.000001  -0.006750   0.000235   0.000150   0.002177
    26  C    0.000091  -0.000212   0.003153  -0.000086  -0.000124   0.000146
    27  H    0.000000  -0.000008  -0.000102  -0.000002   0.000012  -0.000011
    28  H   -0.000079  -0.000251   0.000070  -0.000004   0.000004   0.000006
              19         20         21         22         23         24
     1  C   -0.003608   0.000597  -0.000053   0.000077  -0.000041  -0.063058
     2  H    0.001046   0.000160  -0.000052  -0.000076   0.000014  -0.000807
     3  H    0.000615  -0.000016  -0.000012  -0.000001   0.000000  -0.000608
     4  C    0.000006  -0.000017  -0.000027  -0.000002   0.000001   0.006130
     5  C   -0.000002  -0.000000  -0.000000   0.000000  -0.000000  -0.000158
     6  H    0.000000  -0.000000   0.000000  -0.000000   0.000000   0.000003
     7  H    0.000000  -0.000000   0.000000   0.000000   0.000000  -0.000086
     8  H    0.000000  -0.000000  -0.000000  -0.000000   0.000000   0.000001
     9  C    0.000001   0.000010  -0.000032   0.000000   0.000000   0.000070
    10  H    0.000000  -0.000000   0.000000  -0.000000   0.000000   0.000002
    11  C    0.000007  -0.000097   0.000040  -0.000003   0.000002  -0.000032
    12  H   -0.000000   0.000002  -0.000008  -0.000000   0.000000   0.000002
    13  H    0.000000  -0.000004   0.000042   0.000000  -0.000000  -0.000004
    14  H   -0.000013   0.000010   0.000571   0.000034  -0.000006   0.000003
    15  C    0.352288  -0.065388   0.003679  -0.003431  -0.001685  -0.044860
    16  H   -0.044301  -0.002140  -0.000072   0.002847  -0.000371  -0.000547
    17  H   -0.045763  -0.001105  -0.000023  -0.000507   0.002553  -0.001135
    18  H   -0.040395   0.003696  -0.000108   0.000010  -0.000079  -0.002386
    19  C    4.918193   0.348395  -0.037065  -0.043927  -0.043822   0.698191
    20  C    0.348395   4.909236   0.406146   0.402448   0.398277  -0.043322
    21  H   -0.037065   0.406146   0.568209  -0.030011  -0.026279  -0.002870
    22  H   -0.043927   0.402448  -0.030011   0.586183  -0.033097   0.000448
    23  H   -0.043822   0.398277  -0.026279  -0.033097   0.582514  -0.000842
    24  C    0.698191  -0.043322  -0.002870   0.000448  -0.000842   4.961495
    25  H   -0.036138   0.003365   0.000059  -0.000110  -0.000126   0.402011
    26  C   -0.048263  -0.007534  -0.001944   0.000286   0.000188   0.339925
    27  H    0.000914   0.000169   0.000031  -0.000012   0.000032  -0.043348
    28  H    0.000824  -0.002065  -0.001170  -0.000043   0.000056  -0.043818
              25         26         27         28
     1  C    0.000004   0.326224  -0.045131  -0.040301
     2  H    0.000213  -0.039859   0.004291  -0.002145
     3  H    0.001004  -0.044607  -0.002605   0.004204
     4  C   -0.000155  -0.057357  -0.001850  -0.001437
     5  C    0.000010  -0.000187  -0.000392   0.000317
     6  H   -0.000000  -0.000097  -0.000025  -0.000010
     7  H    0.000012   0.000810  -0.000187  -0.000009
     8  H   -0.000002   0.000027   0.000093   0.000012
     9  C   -0.000002  -0.004367   0.000514   0.001216
    10  H   -0.000000  -0.000116   0.000004  -0.000044
    11  C    0.000000   0.000690  -0.000030   0.000070
    12  H    0.000000  -0.000050  -0.000000   0.000023
    13  H    0.000000   0.000091   0.000000  -0.000079
    14  H   -0.000001  -0.000212  -0.000008  -0.000251
    15  C   -0.006750   0.003153  -0.000102   0.000070
    16  H    0.000235  -0.000086  -0.000002  -0.000004
    17  H    0.000150  -0.000124   0.000012   0.000004
    18  H    0.002177   0.000146  -0.000011   0.000006
    19  C   -0.036138  -0.048263   0.000914   0.000824
    20  C    0.003365  -0.007534   0.000169  -0.002065
    21  H    0.000059  -0.001944   0.000031  -0.001170
    22  H   -0.000110   0.000286  -0.000012  -0.000043
    23  H   -0.000126   0.000188   0.000032   0.000056
    24  C    0.402011   0.339925  -0.043348  -0.043818
    25  H    0.558526  -0.041275  -0.003486   0.003231
    26  C   -0.041275   4.982316   0.413772   0.414875
    27  H   -0.003486   0.413772   0.588492  -0.029597
    28  H    0.003231   0.414875  -0.029597   0.571244
 Mulliken charges:
               1
     1  C   -0.234043
     2  H    0.126389
     3  H    0.115637
     4  C    0.015492
     5  C   -0.339898
     6  H    0.116740
     7  H    0.115156
     8  H    0.115843
     9  C   -0.155151
    10  H    0.116517
    11  C   -0.355612
    12  H    0.121551
    13  H    0.118245
    14  H    0.116933
    15  C   -0.341756
    16  H    0.115405
    17  H    0.116082
    18  H    0.118419
    19  C    0.022819
    20  C   -0.350821
    21  H    0.120949
    22  H    0.118888
    23  H    0.122712
    24  C   -0.160400
    25  H    0.117048
    26  C   -0.236425
    27  H    0.118463
    28  H    0.124819
 Sum of Mulliken charges =  -0.00000
 Mulliken charges with hydrogens summed into heavy atoms:
               1
     1  C    0.007983
     4  C    0.015492
     5  C    0.007841
     9  C   -0.038634
    11  C    0.001117
    15  C    0.008150
    19  C    0.022819
    20  C    0.011728
    24  C   -0.043352
    26  C    0.006857
 Electronic spatial extent (au):  <R**2>=           2423.6530
 Charge=             -0.0000 electrons
 Dipole moment (field-independent basis, Debye):
    X=             -0.2949    Y=              0.1262    Z=             -0.0061  Tot=              0.3208
 Quadrupole moment (field-independent basis, Debye-Ang):
   XX=            -64.5113   YY=            -63.6026   ZZ=            -67.0541
   XY=             -0.6113   XZ=             -0.8625   YZ=             -0.4854
 Traceless Quadrupole moment (field-independent basis, Debye-Ang):
   XX=              0.5447   YY=              1.4534   ZZ=             -1.9981
   XY=             -0.6113   XZ=             -0.8625   YZ=             -0.4854
 Octapole moment (field-independent basis, Debye-Ang**2):
  XXX=             -1.3680  YYY=             -2.7201  ZZZ=              0.1841  XYY=              0.5719
  XXY=              4.5367  XXZ=             -2.6539  XZZ=             -1.5768  YZZ=              1.2276
  YYZ=              1.3700  XYZ=              0.7519
 Hexadecapole moment (field-independent basis, Debye-Ang**3):
 XXXX=          -2492.2784 YYYY=           -696.1069 ZZZZ=           -174.8204 XXXY=              2.3339
 XXXZ=            -11.9297 YYYX=              9.3498 YYYZ=             -3.0516 ZZZX=              0.8365
 ZZZY=             -0.0653 XXYY=           -530.4603 XXZZ=           -456.3106 YYZZ=           -139.1713
 XXYZ=             -4.2427 YYXZ=             -3.1972 ZZXY=             -4.7007
 N-N= 5.164374213007D+02 E-N=-1.937508997834D+03  KE= 3.886263753379D+02
 No NMR shielding tensors so no spin-rotation constants.
 Leave Link  601 at Fri Sep 17 13:38:48 2021, MaxMem=   524288000 cpu:               0.3 elap:               0.3
 (Enter /opt/gaussian/g16_legacy/l701.exe)
 ... and contract with generalized density number  2.
 Compute integral first derivatives.
 Leave Link  701 at Fri Sep 17 13:38:48 2021, MaxMem=   524288000 cpu:               0.3 elap:               0.3
 (Enter /opt/gaussian/g16_legacy/l702.exe)
 L702 exits ... SP integral derivatives will be done elsewhere.
 Leave Link  702 at Fri Sep 17 13:38:48 2021, MaxMem=   524288000 cpu:               0.1 elap:               0.1
 (Enter /opt/gaussian/g16_legacy/l703.exe)
 Integral derivatives from FoFJK, PRISM(SPDF).
 Compute integral first derivatives, UseDBF=F ICtDFT=           0.
 Calling FoFJK, ICntrl=  10002127 FMM=F ISym2X=0 I1Cent= 0 IOpClX= 0 NMat=1 NMatS=1 NMatT=0.
 FoFJK:  IHMeth= 1 ICntrl=10002127 DoSepK=F KAlg= 0 I1Cent=           0 FoldK=F
 IRaf=         0 NMat=       1 IRICut=       1 DoRegI=T DoRafI=F ISym2E= 0 IDoP0=0 IntGTp=1.
 FoFCou: FMM=F IPFlag=           0 FMFlag=      100000 FMFlg1=         800
         NFxFlg=           0 DoJE=F BraDBF=F KetDBF=F FulRan=T
         wScrn=  0.000000 ICntrl=  10002127 IOpCl=  0 I1Cent=           0 NGrid=           0
         NMat0=    1 NMatS0=      1 NMatT0=    0 NMatD0=    1 NMtDS0=    0 NMtDT0=    0
 Symmetry not used in FoFCou.
 Leave Link  703 at Fri Sep 17 13:39:22 2021, MaxMem=   524288000 cpu:              33.9 elap:              33.9
 (Enter /opt/gaussian/g16_legacy/l716.exe)
 Dipole        =-9.11249431D-02 6.69204146D-02-4.81936630D-03
 ***** Axes restored to original set *****
 -------------------------------------------------------------------
 Center     Atomic                   Forces (Hartrees/Bohr)
 Number     Number              X              Y              Z
 -------------------------------------------------------------------
      1        6           0.008467075    0.003770624   -0.002015785
      2        1          -0.001960816   -0.003452992   -0.002504732
      3        1          -0.001200658   -0.001666655   -0.003227961
      4        6           0.005246119    0.000526761    0.003729507
      5        6           0.002421031   -0.001060938   -0.001814563
      6        1          -0.003346520    0.002316404    0.000340860
      7        1           0.001352753    0.000613873    0.003018871
      8        1          -0.002202483   -0.001976082   -0.001554113
      9        6          -0.002824892   -0.002572608   -0.000152899
     10        1          -0.002304856   -0.001316385    0.002334166
     11        6          -0.001640681    0.002043447   -0.000877819
     12        1          -0.001993308    0.000587056   -0.002736456
     13        1           0.000984781    0.002368041    0.002318733
     14        1           0.002864237   -0.001558670    0.000880170
     15        6           0.000275767   -0.001492818    0.003058081
     16        1          -0.002642425   -0.001436565   -0.001837109
     17        1           0.001028052    0.002908988    0.001280111
     18        1           0.001858364    0.001072220   -0.003764125
     19        6           0.001415050   -0.000598493    0.005094437
     20        6           0.003879954   -0.000855828   -0.002389765
     21        1          -0.002582976   -0.001319835    0.001914548
     22        1          -0.002441388   -0.002573517   -0.000890305
     23        1           0.000943922    0.002878087    0.000779955
     24        6          -0.000215221   -0.004427877   -0.002836188
     25        1          -0.001412526    0.002880595   -0.001218448
     26        6          -0.007951201    0.000026695   -0.000293602
     27        1           0.002445333    0.002368460    0.000208066
     28        1           0.001537515    0.001948014    0.003156367
 -------------------------------------------------------------------
 Cartesian Forces:  Max     0.008467075 RMS     0.002575821
 Leave Link  716 at Fri Sep 17 13:39:22 2021, MaxMem=   524288000 cpu:               0.1 elap:               0.1
 (Enter /opt/gaussian/g16_legacy/l103.exe)

 GradGradGradGradGradGradGradGradGradGradGradGradGradGradGradGradGradGrad
 Berny optimization.
 FormGI is forming the generalized inverse of G from B-inverse, IUseBI=4.
 GSVD:  received Info=                   1 from GESDD.
 Internal  Forces:  Max     0.004882086 RMS     0.001915978
 Search for a local minimum.
 Step number   1 out of a maximum of  138
 All quantities printed in internal units (Hartrees-Bohrs-Radians)
 RMS Force = .19160D-02 SwitMx=.10000D-02 MixMth= 1
 Mixed Optimization -- RFO/linear search
 Second derivative matrix not updated -- first step.
 ITU=  0
     Eigenvalues ---    0.00343   0.00570   0.00670   0.00680   0.00692
     Eigenvalues ---    0.00715   0.00818   0.01219   0.01287   0.01569
     Eigenvalues ---    0.01641   0.02779   0.02785   0.04018   0.04138
     Eigenvalues ---    0.05349   0.05399   0.06979   0.07035   0.07090
     Eigenvalues ---    0.07093   0.07269   0.07301   0.07347   0.07505
     Eigenvalues ---    0.09277   0.09362   0.12767   0.12843   0.15999
     Eigenvalues ---    0.15999   0.16000   0.16000   0.16000   0.16000
     Eigenvalues ---    0.16000   0.16000   0.16000   0.16000   0.16000
     Eigenvalues ---    0.16000   0.16000   0.16000   0.21858   0.21866
     Eigenvalues ---    0.22000   0.22000   0.24994   0.24997   0.24998
     Eigenvalues ---    0.24999   0.29243   0.30875   0.31631   0.31703
     Eigenvalues ---    0.31799   0.31974   0.32798   0.33861   0.33970
     Eigenvalues ---    0.34060   0.34197   0.34225   0.34232   0.34249
     Eigenvalues ---    0.34250   0.34253   0.34260   0.34260   0.34270
     Eigenvalues ---    0.34300   0.34333   0.34544   0.34552   0.34795
     Eigenvalues ---    0.34858   0.55488   0.55586
 RFO step:  Lambda=-2.95617655D-03 EMin= 3.43202656D-03
 Linear search not attempted -- first point.
 Iteration  1 RMS(Cart)=  0.03970132 RMS(Int)=  0.00072341
 Iteration  2 RMS(Cart)=  0.00093454 RMS(Int)=  0.00016593
 Iteration  3 RMS(Cart)=  0.00000043 RMS(Int)=  0.00016593
 ITry= 1 IFail=0 DXMaxC= 1.80D-01 DCOld= 1.00D+10 DXMaxT= 3.00D-01 DXLimC= 3.00D+00 Rises=F
 Variable       Old X    -DE/DX   Delta X   Delta X   Delta X     New X
                                 (Linear)    (Quad)   (Total)
    R1        2.07229  -0.00333   0.00000  -0.00969  -0.00969   2.06260
    R2        2.07565  -0.00281   0.00000  -0.00822  -0.00822   2.06743
    R3        2.86251  -0.00351   0.00000  -0.01125  -0.01125   2.85126
    R4        2.89498   0.00175   0.00000   0.00592   0.00592   2.90090
    R5        2.84825  -0.00047   0.00000  -0.00146  -0.00146   2.84679
    R6        2.54701  -0.00401   0.00000  -0.00718  -0.00718   2.53982
    R7        2.06952  -0.00369   0.00000  -0.01069  -0.01069   2.05883
    R8        2.06827  -0.00177   0.00000  -0.00512  -0.00512   2.06315
    R9        2.06893  -0.00210   0.00000  -0.00608  -0.00608   2.06285
   R10        2.05906  -0.00216   0.00000  -0.00614  -0.00614   2.05292
   R11        2.82708   0.00311   0.00000   0.00940   0.00940   2.83648
   R12        2.06771  -0.00158   0.00000  -0.00457  -0.00457   2.06314
   R13        2.06894  -0.00260   0.00000  -0.00753  -0.00753   2.06141
   R14        2.06409  -0.00292   0.00000  -0.00837  -0.00837   2.05572
   R15        2.06910  -0.00198   0.00000  -0.00574  -0.00574   2.06336
   R16        2.06905  -0.00197   0.00000  -0.00569  -0.00569   2.06336
   R17        2.06941  -0.00394   0.00000  -0.01141  -0.01141   2.05800
   R18        2.84691  -0.00079   0.00000  -0.00246  -0.00246   2.84445
   R19        2.84192  -0.00046   0.00000  -0.00144  -0.00144   2.84048
   R20        2.54615  -0.00320   0.00000  -0.00572  -0.00572   2.54043
   R21        2.06422  -0.00286   0.00000  -0.00820  -0.00820   2.05603
   R22        2.06999  -0.00263   0.00000  -0.00762  -0.00762   2.06237
   R23        2.06877  -0.00184   0.00000  -0.00532  -0.00532   2.06346
   R24        2.06009  -0.00199   0.00000  -0.00567  -0.00567   2.05442
   R25        2.84513  -0.00152   0.00000  -0.00475  -0.00475   2.84038
   R26        2.07381  -0.00239   0.00000  -0.00698  -0.00698   2.06683
   R27        2.06912  -0.00276   0.00000  -0.00798  -0.00798   2.06114
    A1        1.82985   0.00207   0.00000   0.02250   0.02233   1.85218
    A2        1.93016   0.00043   0.00000   0.00925   0.00929   1.93945
    A3        1.91833  -0.00277   0.00000  -0.02019  -0.02023   1.89810
    A4        1.90265  -0.00069   0.00000  -0.00272  -0.00272   1.89993
    A5        1.92001  -0.00194   0.00000  -0.01719  -0.01723   1.90279
    A6        1.95847   0.00282   0.00000   0.00904   0.00908   1.96755
    A7        2.00828   0.00238   0.00000   0.00971   0.00914   2.01742
    A8        2.17071  -0.00488   0.00000  -0.01894  -0.01947   2.15124
    A9        2.10402   0.00252   0.00000   0.01033   0.00975   2.11377
   A10        1.95924  -0.00262   0.00000  -0.01308  -0.01304   1.94620
   A11        1.92806   0.00227   0.00000   0.01213   0.01215   1.94021
   A12        1.92481   0.00165   0.00000   0.00899   0.00901   1.93383
   A13        1.87701   0.00055   0.00000   0.00564   0.00567   1.88268
   A14        1.87761   0.00109   0.00000   0.01017   0.01020   1.88781
   A15        1.89495  -0.00307   0.00000  -0.02469  -0.02468   1.87027
   A16        2.06965  -0.00193   0.00000  -0.01336  -0.01338   2.05627
   A17        2.22512  -0.00188   0.00000  -0.00839  -0.00841   2.21671
   A18        1.98827   0.00382   0.00000   0.02192   0.02191   2.01018
   A19        1.91729   0.00394   0.00000   0.02326   0.02323   1.94051
   A20        1.91006   0.00237   0.00000   0.01557   0.01552   1.92558
   A21        1.98128  -0.00299   0.00000  -0.01845  -0.01836   1.96292
   A22        1.88709  -0.00309   0.00000  -0.01881  -0.01898   1.86811
   A23        1.89283  -0.00095   0.00000  -0.00760  -0.00750   1.88533
   A24        1.87266   0.00053   0.00000   0.00495   0.00502   1.87768
   A25        1.89485  -0.00313   0.00000  -0.02539  -0.02538   1.86947
   A26        1.87919   0.00092   0.00000   0.00937   0.00940   1.88859
   A27        1.92491   0.00220   0.00000   0.01235   0.01237   1.93728
   A28        1.87887   0.00091   0.00000   0.00789   0.00792   1.88680
   A29        1.92346   0.00174   0.00000   0.00875   0.00877   1.93223
   A30        1.96055  -0.00276   0.00000  -0.01379  -0.01376   1.94680
   A31        1.99462   0.00148   0.00000   0.00586   0.00584   2.00046
   A32        2.10580   0.00183   0.00000   0.00726   0.00724   2.11304
   A33        2.18272  -0.00330   0.00000  -0.01301  -0.01303   2.16968
   A34        1.97967  -0.00221   0.00000  -0.01014  -0.01012   1.96954
   A35        1.92084  -0.00000   0.00000  -0.00092  -0.00090   1.91993
   A36        1.92166   0.00230   0.00000   0.01165   0.01167   1.93333
   A37        1.86370   0.00200   0.00000   0.01697   0.01698   1.88069
   A38        1.88436   0.00024   0.00000   0.00331   0.00334   1.88770
   A39        1.89072  -0.00240   0.00000  -0.02164  -0.02162   1.86909
   A40        2.06720  -0.00168   0.00000  -0.01186  -0.01226   2.05494
   A41        2.22715  -0.00225   0.00000  -0.00994  -0.01035   2.21680
   A42        1.98871   0.00395   0.00000   0.02259   0.02217   2.01088
   A43        1.94452   0.00330   0.00000   0.01362   0.01365   1.95817
   A44        1.92095  -0.00239   0.00000  -0.01480  -0.01500   1.90595
   A45        1.92598  -0.00263   0.00000  -0.02486  -0.02492   1.90106
   A46        1.88059   0.00061   0.00000   0.01706   0.01711   1.89769
   A47        1.94654  -0.00052   0.00000  -0.00238  -0.00233   1.94421
   A48        1.84193   0.00154   0.00000   0.01187   0.01161   1.85354
    D1        2.64267   0.00174   0.00000   0.05215   0.05194   2.69461
    D2       -0.47856   0.00076   0.00000  -0.01002  -0.00979  -0.48835
    D3        0.63965  -0.00059   0.00000   0.02153   0.02129   0.66094
    D4       -2.48158  -0.00156   0.00000  -0.04063  -0.04043  -2.52202
[...]
                 (A) (A) (A) (A) (A) (A) (A) (A) (A) (A) (A) (A)
                 (A) (A) (A) (A) (A) (A) (A) (A) (A) (A) (A) (A)
                 (A) (A) (A) (A) (A) (A) (A) (A) (A) (A) (A) (A)
                 (A) (A) (A) (A) (A) (A) (A) (A) (A) (A) (A) (A)
                 (A) (A) (A) (A) (A) (A) (A) (A) (A) (A) (A) (A)
                 (A) (A) (A) (A) (A) (A) (A) (A) (A) (A) (A) (A)
                 (A) (A) (A) (A) (A) (A) (A) (A) (A) (A) (A) (A)
                 (A) (A) (A) (A) (A) (A) (A) (A) (A) (A) (A) (A)
                 (A) (A) (A) (A) (A) (A) (A) (A) (A) (A) (A) (A)
                 (A) (A) (A) (A) (A) (A) (A) (A) (A) (A) (A) (A)
                 (A) (A) (A) (A) (A) (A) (A) (A) (A) (A) (A) (A)
                 (A) (A) (A) (A) (A) (A) (A) (A) (A) (A) (A) (A)
                 (A) (A) (A) (A) (A) (A) (A) (A) (A)
 The electronic state is 1-A.
 Alpha  occ. eigenvalues --  -11.23020 -11.22460 -11.21868 -11.21730 -11.21712
 Alpha  occ. eigenvalues --  -11.21539 -11.21506 -11.21436 -11.21417 -11.21348
 Alpha  occ. eigenvalues --   -1.10821  -1.08492  -1.01823  -0.98143  -0.93838
 Alpha  occ. eigenvalues --   -0.91939  -0.86963  -0.82855  -0.70494  -0.69519
 Alpha  occ. eigenvalues --   -0.64988  -0.61512  -0.60591  -0.58878  -0.58366
 Alpha  occ. eigenvalues --   -0.56774  -0.55298  -0.54966  -0.53295  -0.52261
 Alpha  occ. eigenvalues --   -0.51859  -0.51173  -0.50832  -0.49581  -0.48519
 Alpha  occ. eigenvalues --   -0.46073  -0.44624  -0.33371  -0.31514
 Alpha virt. eigenvalues --    0.18142   0.19779   0.22152   0.24486   0.25192
 Alpha virt. eigenvalues --    0.27439   0.28535   0.28922   0.30318   0.30811
 Alpha virt. eigenvalues --    0.31477   0.32261   0.33202   0.33794   0.34383
 Alpha virt. eigenvalues --    0.35458   0.36114   0.36962   0.39185   0.40602
 Alpha virt. eigenvalues --    0.41328   0.42631   0.43685   0.44253   0.45395
 Alpha virt. eigenvalues --    0.51702   0.54378   0.61070   0.62576   0.70520
 Alpha virt. eigenvalues --    0.71073   0.72196   0.73768   0.76075   0.76177
 Alpha virt. eigenvalues --    0.76620   0.79010   0.79474   0.81070   0.82306
 Alpha virt. eigenvalues --    0.83713   0.85579   0.89117   0.91091   0.91343
 Alpha virt. eigenvalues --    0.92820   0.94745   0.97065   0.98284   0.98818
 Alpha virt. eigenvalues --    0.99710   1.00468   1.01911   1.03844   1.06577
 Alpha virt. eigenvalues --    1.08019   1.08221   1.09393   1.11664   1.12687
 Alpha virt. eigenvalues --    1.13026   1.13870   1.14856   1.15402   1.16045
 Alpha virt. eigenvalues --    1.16257   1.16619   1.18722   1.19116   1.20671
 Alpha virt. eigenvalues --    1.20953   1.23032   1.23885   1.25765   1.28153
 Alpha virt. eigenvalues --    1.34332   1.41723   1.42153   1.44890   1.46395
 Alpha virt. eigenvalues --    1.48456   1.54136   1.55360   1.57256   1.58165
 Alpha virt. eigenvalues --    1.61459   1.63397   1.66485   1.69046   1.69645
 Alpha virt. eigenvalues --    1.73917   1.82243   1.91111   1.93363   1.96231
 Alpha virt. eigenvalues --    1.98688   2.01467   2.02277   2.03942   2.08565
 Alpha virt. eigenvalues --    2.09706   2.10748   2.11744   2.13037   2.14903
 Alpha virt. eigenvalues --    2.15780   2.16940   2.19854   2.23666   2.28347
 Alpha virt. eigenvalues --    2.29590   2.30325   2.33235   2.35347   2.35688
 Alpha virt. eigenvalues --    2.35978   2.36098   2.38923   2.40264   2.41259
 Alpha virt. eigenvalues --    2.42195   2.43169   2.44154   2.45371   2.46084
 Alpha virt. eigenvalues --    2.47201   2.49167   2.49622   2.51174   2.54099
 Alpha virt. eigenvalues --    2.57315   2.58365   2.61888   2.63241   2.64107
 Alpha virt. eigenvalues --    2.67127   2.68175   2.71776   2.73352   2.73474
 Alpha virt. eigenvalues --    2.75815   2.77410   2.80796   2.82634   2.85354
 Alpha virt. eigenvalues --    2.87137   2.89441   2.92178   2.93739   2.94867
 Alpha virt. eigenvalues --    2.97869   2.99094   3.00960   3.02677   3.05807
 Alpha virt. eigenvalues --    3.06402   3.07703   3.09315   3.13762   3.17093
 Alpha virt. eigenvalues --    3.17589   3.19238   3.20046   3.21242   3.22334
 Alpha virt. eigenvalues --    3.24167   3.25050   3.26607   3.27420   3.37866
 Alpha virt. eigenvalues --    3.40355   3.46023   3.46902   3.56200   3.58183
 Alpha virt. eigenvalues --    3.59499   3.62406   3.67928   3.75494   3.78622
 Alpha virt. eigenvalues --    3.80005   3.81570   3.82569   3.83286   3.83898
 Alpha virt. eigenvalues --    3.84750   3.86481   3.87645   3.89820   3.91558
 Alpha virt. eigenvalues --    3.97645   4.59389   4.63170   4.74472   4.82572
 Alpha virt. eigenvalues --    4.88928   4.92582   4.93409   5.07840   5.10766
 Alpha virt. eigenvalues --    5.17766
          Condensed to atoms (all electrons):
               1          2          3          4          5          6
     1  C    5.004767   0.411715   0.414473   0.337355  -0.056085   0.003801
     2  H    0.411715   0.572983  -0.028296  -0.038988   0.003071  -0.000108
     3  H    0.414473  -0.028296   0.587507  -0.046308  -0.004587   0.000106
     4  C    0.337355  -0.038988  -0.046308   4.952603   0.351934  -0.042765
     5  C   -0.056085   0.003071  -0.004587   0.351934   4.891804   0.407087
     6  H    0.003801  -0.000108   0.000106  -0.042765   0.407087   0.568858
     7  H    0.000011  -0.000005  -0.000489  -0.045679   0.400946  -0.027466
     8  H   -0.003698  -0.000034   0.002378  -0.041506   0.397495  -0.026764
     9  C   -0.047991  -0.001860   0.002531   0.697840  -0.046054  -0.002890
    10  H    0.003272   0.000031  -0.000118  -0.037842  -0.006525   0.002385
    11  C   -0.007749  -0.002811   0.000160  -0.050271   0.003364   0.000132
    12  H    0.000152   0.000184   0.000017  -0.000627  -0.000106  -0.000006
    13  H    0.000310  -0.000067  -0.000013  -0.000247  -0.000095  -0.000006
    14  H   -0.001745  -0.001657   0.000030  -0.000691   0.000109   0.000005
    15  C   -0.000099  -0.000043  -0.000004   0.000001  -0.000000   0.000000
    16  H    0.000024  -0.000007  -0.000002  -0.000000   0.000000  -0.000000
    17  H   -0.000005   0.000002   0.000000   0.000000  -0.000000   0.000000
    18  H   -0.000003  -0.000002   0.000003   0.000000  -0.000000   0.000000
    19  C   -0.004325   0.001388   0.000787   0.000041  -0.000003   0.000000
    20  C    0.000587   0.000200  -0.000015  -0.000018  -0.000000  -0.000000
    21  H   -0.000302  -0.000131  -0.000016  -0.000011  -0.000000   0.000000
    22  H    0.000130  -0.000135  -0.000002  -0.000005   0.000000  -0.000000
    23  H   -0.000040   0.000022   0.000000   0.000001  -0.000000   0.000000
    24  C   -0.061827  -0.000504  -0.000900   0.006443  -0.000149   0.000004
    25  H    0.000175   0.000111   0.001011  -0.000152   0.000010  -0.000000
    26  C    0.332330  -0.041801  -0.046074  -0.055544  -0.000661  -0.000109
    27  H   -0.046841   0.004515  -0.001931  -0.002075  -0.000289  -0.000050
    28  H   -0.042370  -0.003118   0.004477  -0.001813   0.000243  -0.000005
               7          8          9         10         11         12
     1  C    0.000011  -0.003698  -0.047991   0.003272  -0.007749   0.000152
     2  H   -0.000005  -0.000034  -0.001860   0.000031  -0.002811   0.000184
     3  H   -0.000489   0.002378   0.002531  -0.000118   0.000160   0.000017
     4  C   -0.045679  -0.041506   0.697840  -0.037842  -0.050271  -0.000627
     5  C    0.400946   0.397495  -0.046054  -0.006525   0.003364  -0.000106
     6  H   -0.027466  -0.026764  -0.002890   0.002385   0.000132  -0.000006
     7  H    0.596034  -0.037541  -0.001011   0.000135  -0.000101  -0.000004
     8  H   -0.037541   0.591921  -0.000373   0.000216  -0.000105   0.000017
     9  C   -0.001011  -0.000373   4.938970   0.404494   0.340494  -0.041523
    10  H    0.000135   0.000216   0.404494   0.558671  -0.041279  -0.001122
    11  C   -0.000101  -0.000105   0.340494  -0.041279   4.900974   0.401144
    12  H   -0.000004   0.000017  -0.041523  -0.001122   0.401144   0.583648
    13  H    0.000017  -0.000004  -0.041805  -0.001264   0.402169  -0.035462
    14  H   -0.000003   0.000002  -0.043903   0.003299   0.409079  -0.027132
    15  C   -0.000000  -0.000000  -0.000000   0.000000  -0.000000   0.000000
    16  H    0.000000  -0.000000   0.000000  -0.000000  -0.000000  -0.000000
    17  H    0.000000   0.000000   0.000000   0.000000   0.000000   0.000000
    18  H   -0.000000  -0.000000  -0.000000   0.000000   0.000000  -0.000000
    19  C    0.000000   0.000000  -0.000001   0.000000   0.000013  -0.000000
    20  C   -0.000000   0.000000   0.000015  -0.000000  -0.000147   0.000004
    21  H    0.000000  -0.000000  -0.000045   0.000000   0.000074  -0.000013
    22  H    0.000000  -0.000000   0.000000  -0.000000  -0.000009  -0.000000
    23  H   -0.000000   0.000000   0.000000   0.000000   0.000003   0.000000
    24  C   -0.000111   0.000004   0.000114   0.000002  -0.000031   0.000002
    25  H    0.000015  -0.000001  -0.000002  -0.000000   0.000000   0.000000
    26  C    0.000609   0.000086  -0.004911  -0.000113   0.000577  -0.000037
    27  H    0.000197   0.000058   0.000760   0.000001  -0.000033  -0.000000
    28  H   -0.000015   0.000006   0.001406  -0.000046  -0.000082   0.000037
              13         14         15         16         17         18
     1  C    0.000310  -0.001745  -0.000099   0.000024  -0.000005  -0.000003
     2  H   -0.000067  -0.001657  -0.000043  -0.000007   0.000002  -0.000002
     3  H   -0.000013   0.000030  -0.000004  -0.000002   0.000000   0.000003
     4  C   -0.000247  -0.000691   0.000001  -0.000000   0.000000   0.000000
     5  C   -0.000095   0.000109  -0.000000   0.000000  -0.000000  -0.000000
     6  H   -0.000006   0.000005   0.000000  -0.000000   0.000000   0.000000
     7  H    0.000017  -0.000003  -0.000000   0.000000   0.000000  -0.000000
     8  H   -0.000004   0.000002  -0.000000  -0.000000   0.000000  -0.000000
     9  C   -0.041805  -0.043903  -0.000000   0.000000   0.000000  -0.000000
    10  H   -0.001264   0.003299   0.000000  -0.000000   0.000000   0.000000
    11  C    0.402169   0.409079  -0.000000  -0.000000   0.000000   0.000000
    12  H   -0.035462  -0.027132   0.000000  -0.000000   0.000000  -0.000000
    13  H    0.586720  -0.029956  -0.000000   0.000000  -0.000000  -0.000000
    14  H   -0.029956   0.577164   0.000000  -0.000000  -0.000000  -0.000000
    15  C   -0.000000   0.000000   4.900112   0.398238   0.398811   0.406218
    16  H    0.000000  -0.000000   0.398238   0.594542  -0.037806  -0.026703
    17  H   -0.000000  -0.000000   0.398811  -0.037806   0.593607  -0.026549
    18  H   -0.000000  -0.000000   0.406218  -0.026703  -0.026549   0.566018
    19  C    0.000001  -0.000026   0.353753  -0.043899  -0.044274  -0.041639
    20  C   -0.000015  -0.000000  -0.064931  -0.001975  -0.001201   0.003785
    21  H    0.000114   0.000412   0.003725  -0.000068  -0.000031  -0.000113
    22  H    0.000000   0.000079  -0.002632   0.002756  -0.000476  -0.000032
    23  H   -0.000000  -0.000008  -0.002223  -0.000456   0.002766  -0.000053
    24  C   -0.000009   0.000026  -0.044415  -0.000422  -0.001270  -0.002632
    25  H    0.000000  -0.000002  -0.006963   0.000182   0.000187   0.002335
    26  C    0.000163  -0.000737   0.003126  -0.000068  -0.000131   0.000148
    27  H   -0.000000  -0.000010  -0.000094  -0.000002   0.000009  -0.000010
    28  H   -0.000140  -0.000475   0.000051  -0.000005   0.000007   0.000007
              19         20         21         22         23         24
     1  C   -0.004325   0.000587  -0.000302   0.000130  -0.000040  -0.061827
     2  H    0.001388   0.000200  -0.000131  -0.000135   0.000022  -0.000504
     3  H    0.000787  -0.000015  -0.000016  -0.000002   0.000000  -0.000900
     4  C    0.000041  -0.000018  -0.000011  -0.000005   0.000001   0.006443
     5  C   -0.000003  -0.000000  -0.000000   0.000000  -0.000000  -0.000149
     6  H    0.000000  -0.000000   0.000000  -0.000000   0.000000   0.000004
     7  H    0.000000  -0.000000   0.000000   0.000000  -0.000000  -0.000111
     8  H    0.000000   0.000000  -0.000000  -0.000000   0.000000   0.000004
     9  C   -0.000001   0.000015  -0.000045   0.000000   0.000000   0.000114
    10  H    0.000000  -0.000000   0.000000  -0.000000   0.000000   0.000002
    11  C    0.000013  -0.000147   0.000074  -0.000009   0.000003  -0.000031
    12  H   -0.000000   0.000004  -0.000013  -0.000000   0.000000   0.000002
    13  H    0.000001  -0.000015   0.000114   0.000000  -0.000000  -0.000009
    14  H   -0.000026  -0.000000   0.000412   0.000079  -0.000008   0.000026
    15  C    0.353753  -0.064931   0.003725  -0.002632  -0.002223  -0.044415
    16  H   -0.043899  -0.001975  -0.000068   0.002756  -0.000456  -0.000422
    17  H   -0.044274  -0.001201  -0.000031  -0.000476   0.002766  -0.001270
    18  H   -0.041639   0.003785  -0.000113  -0.000032  -0.000053  -0.002632
    19  C    4.914193   0.350333  -0.037848  -0.043385  -0.043537   0.697734
    20  C    0.350333   4.907254   0.407154   0.401208   0.399852  -0.044248
    21  H   -0.037848   0.407154   0.568221  -0.028659  -0.026060  -0.003253
    22  H   -0.043385   0.401208  -0.028659   0.587442  -0.035759  -0.000031
    23  H   -0.043537   0.399852  -0.026060  -0.035759   0.584669  -0.000365
    24  C    0.697734  -0.044248  -0.003253  -0.000031  -0.000365   4.962747
    25  H   -0.038449   0.003528   0.000061  -0.000121  -0.000121   0.403391
    26  C   -0.050100  -0.008144  -0.002069   0.000367   0.000117   0.338699
    27  H    0.001583   0.000195   0.000058  -0.000014   0.000021  -0.041394
    28  H    0.000438  -0.002693  -0.001675  -0.000076   0.000113  -0.044060
              25         26         27         28
     1  C    0.000175   0.332330  -0.046841  -0.042370
     2  H    0.000111  -0.041801   0.004515  -0.003118
     3  H    0.001011  -0.046074  -0.001931   0.004477
     4  C   -0.000152  -0.055544  -0.002075  -0.001813
     5  C    0.000010  -0.000661  -0.000289   0.000243
     6  H   -0.000000  -0.000109  -0.000050  -0.000005
     7  H    0.000015   0.000609   0.000197  -0.000015
     8  H   -0.000001   0.000086   0.000058   0.000006
     9  C   -0.000002  -0.004911   0.000760   0.001406
    10  H   -0.000000  -0.000113   0.000001  -0.000046
    11  C    0.000000   0.000577  -0.000033  -0.000082
    12  H    0.000000  -0.000037  -0.000000   0.000037
    13  H    0.000000   0.000163  -0.000000  -0.000140
    14  H   -0.000002  -0.000737  -0.000010  -0.000475
    15  C   -0.006963   0.003126  -0.000094   0.000051
    16  H    0.000182  -0.000068  -0.000002  -0.000005
    17  H    0.000187  -0.000131   0.000009   0.000007
    18  H    0.002335   0.000148  -0.000010   0.000007
    19  C   -0.038449  -0.050100   0.001583   0.000438
    20  C    0.003528  -0.008144   0.000195  -0.002693
    21  H    0.000061  -0.002069   0.000058  -0.001675
    22  H   -0.000121   0.000367  -0.000014  -0.000076
    23  H   -0.000121   0.000117   0.000021   0.000113
    24  C    0.403391   0.338699  -0.041394  -0.044060
    25  H    0.557388  -0.039113  -0.003424   0.003152
    26  C   -0.039113   4.979544   0.413482   0.415850
    27  H   -0.003424   0.413482   0.585267  -0.028362
    28  H    0.003152   0.415850  -0.028362   0.575347
 Mulliken charges:
               1
     1  C   -0.236021
     2  H    0.125346
     3  H    0.115272
     4  C    0.018322
     5  C   -0.341505
     6  H    0.117792
     7  H    0.114461
     8  H    0.117844
     9  C   -0.154256
    10  H    0.115801
    11  C   -0.355567
    12  H    0.120830
    13  H    0.119588
    14  H    0.116140
    15  C   -0.342631
    16  H    0.115672
    17  H    0.116356
    18  H    0.119222
    19  C    0.027222
    20  C   -0.350727
    21  H    0.120474
    22  H    0.119352
    23  H    0.121058
    24  C   -0.163543
    25  H    0.116803
    26  C   -0.235486
    27  H    0.118380
    28  H    0.123802
 Sum of Mulliken charges =  -0.00000
 Mulliken charges with hydrogens summed into heavy atoms:
               1
     1  C    0.004596
     4  C    0.018322
     5  C    0.008593
     9  C   -0.038454
    11  C    0.000991
    15  C    0.008618
    19  C    0.027222
    20  C    0.010156
    24  C   -0.046740
    26  C    0.006696
 Electronic spatial extent (au):  <R**2>=           2384.0053
 Charge=             -0.0000 electrons
 Dipole moment (field-independent basis, Debye):
    X=             -0.3027    Y=              0.1253    Z=              0.0460  Tot=              0.3308
 Quadrupole moment (field-independent basis, Debye-Ang):
   XX=            -64.3023   YY=            -63.2901   ZZ=            -67.3956
   XY=             -0.7521   XZ=             -1.2367   YZ=             -0.3487
 Traceless Quadrupole moment (field-independent basis, Debye-Ang):
   XX=              0.6937   YY=              1.7059   ZZ=             -2.3996
   XY=             -0.7521   XZ=             -1.2367   YZ=             -0.3487
 Octapole moment (field-independent basis, Debye-Ang**2):
  XXX=             -2.6682  YYY=             -2.9989  ZZZ=              0.9000  XYY=              0.6415
  XXY=              4.0909  XXZ=             -2.0918  XZZ=             -1.2120  YZZ=              1.4955
  YYZ=              0.6110  XYZ=              0.3641
 Hexadecapole moment (field-independent basis, Debye-Ang**3):
 XXXX=          -2435.7152 YYYY=           -693.4927 ZZZZ=           -166.6415 XXXY=             -2.3046
 XXXZ=            -14.7515 YYYX=             11.0526 YYYZ=             -1.4214 ZZZX=             -2.8119
 ZZZY=             -0.6411 XXYY=           -520.1244 XXZZ=           -449.2338 YYZZ=           -138.3649
 XXYZ=             -4.2785 YYXZ=             -0.5785 ZZXY=             -5.9188
 N-N= 5.190880240790D+02 E-N=-1.942888787017D+03  KE= 3.887471634840D+02
 No NMR shielding tensors so no spin-rotation constants.
 Leave Link  601 at Fri Sep 17 14:53:30 2021, MaxMem=   524288000 cpu:               0.3 elap:               0.7
 (Enter /opt/gaussian/g16_legacy/l9999.exe)
 1\1\GINC-TRUENO91\FOpt\RMP2-FC\6-31G(d,p)\C10H18\JRAMOS\17-Sep-2021\0\
 \#p opt mp2/6-31g(d,p)\\Conformer number 2030. Energy MM = 23.242 kcal
 /mol\\0,1\C,0.8507765953,-0.3045973073,0.7865190883\H,0.8103578441,0.7
 837474648,0.7202807942\H,0.7962605974,-0.5479968069,1.8515413104\C,2.1
 367680302,-0.846421281,0.214905574\C,2.6398677505,-2.1181875272,0.8417
 649172\H,3.5267216449,-2.4923701845,0.3318662651\H,1.876448339,-2.8987
 585022,0.8105099942\H,2.8896283653,-1.960398363,1.8932149635\C,2.78391
 10519,-0.2817538634,-0.8215829598\H,3.6892938347,-0.7671686635,-1.1754
 156406\C,2.3912091945,0.9623948919,-1.5590252716\H,3.1774525807,1.7173
 329183,-1.4985975007\H,2.2364978187,0.7494150562,-2.6184637821\H,1.474
 0354468,1.4009090385,-1.1723952429\C,-3.6780412423,0.9699135352,1.1105
 652816\H,-3.6191110944,1.9932371254,1.4881157203\H,-4.5604589657,0.919
 790997,0.4685986881\H,-3.8329886888,0.3019416393,1.9564750574\C,-2.436
 5697151,0.6096126832,0.3422028272\C,-2.1555420483,1.4871804669,-0.8459
 731118\H,-1.2360945544,1.2217309554,-1.3616247654\H,-2.0765134284,2.53
 04084094,-0.5324999856\H,-2.9770828357,1.4349400759,-1.5639694239\C,-1
 .6661886098,-0.4280388529,0.7197713737\H,-1.9636168305,-0.9735039892,1
 .6118684056\C,-0.3890818756,-0.883390035,0.0782583946\H,-0.3382564544,
 -1.9750777088,0.107861987\H,-0.3494827504,-0.6049921726,-0.9755729581\
 \Version=EM64L-G16RevA.03\State=1-A\HF=-389.1567534\MP2=-390.5738646\R
 MSD=5.149e-09\RMSF=3.222e-06\Dipole=-0.0774399,0.0825441,-0.0265524\PG
 =C01 [X(C10H18)]\\@


 There ain't no surer way to find out whether you
 like people or hate them than to travel with them.
                                     -- Mark Twain
 Job cpu time:       0 days  1 hours 20 minutes 44.8 seconds.
 Elapsed time:       0 days  1 hours 20 minutes 51.9 seconds.
 File lengths (MBytes):  RWF=     32 Int=      0 D2E=      0 Chk=      7 Scr=      1
 Normal termination of Gaussian 16 at Fri Sep 17 14:53:30 2021.
