 Entering Gaussian System, Link 0=/opt/gaussian/g16_legacy/g16
 Input=01-IsoP_2165_gaussian.com
 Output=01-IsoP_2165_gaussian.log
 Initial command:
 /opt/gaussian/g16_legacy/l1.exe "/scratch-local/jramos/2661347/Gau-29791.inp" -scrdir="/scratch-local/jramos/2661347/"
 Entering Link 1 = /opt/gaussian/g16_legacy/l1.exe PID=     29823.
  
 Copyright (c) 1988,1990,1992,1993,1995,1998,2003,2009,2016,
            Gaussian, Inc.  All Rights Reserved.
  
 This is part of the Gaussian(R) 16 program.  It is based on
 the Gaussian(R) 09 system (copyright 2009, Gaussian, Inc.),
 the Gaussian(R) 03 system (copyright 2003, Gaussian, Inc.),
 the Gaussian(R) 98 system (copyright 1998, Gaussian, Inc.),
 the Gaussian(R) 94 system (copyright 1995, Gaussian, Inc.),
 the Gaussian 92(TM) system (copyright 1992, Gaussian, Inc.),
 the Gaussian 90(TM) system (copyright 1990, Gaussian, Inc.),
 the Gaussian 88(TM) system (copyright 1988, Gaussian, Inc.),
 the Gaussian 86(TM) system (copyright 1986, Carnegie Mellon
 University), and the Gaussian 82(TM) system (copyright 1983,
 Carnegie Mellon University). Gaussian is a federally registered
 trademark of Gaussian, Inc.
  
 This software contains proprietary and confidential information,
 including trade secrets, belonging to Gaussian, Inc.
  
 This software is provided under written license and may be
 used, copied, transmitted, or stored only in accord with that
 written license.
  
 The following legend is applicable only to US Government
 contracts under FAR:
  
                    RESTRICTED RIGHTS LEGEND
  
 Use, reproduction and disclosure by the US Government is
 subject to restrictions as set forth in subparagraphs (a)
 and (c) of the Commercial Computer Software - Restricted
 Rights clause in FAR 52.227-19.
  
 Gaussian, Inc.
 340 Quinnipiac St., Bldg. 40, Wallingford CT 06492
  
  
 ---------------------------------------------------------------
 Warning -- This program may not be used in any manner that
 competes with the business of Gaussian, Inc. or will provide
 assistance to any competitor of Gaussian, Inc.  The licensee
 of this program is prohibited from giving any competitor of
 Gaussian, Inc. access to this program.  By using this program,
 the user acknowledges that Gaussian, Inc. is engaged in the
 business of creating and licensing software in the field of
 computational chemistry and represents and warrants to the
 licensee that it is not a competitor of Gaussian, Inc. and that
 it will not use this program in any manner prohibited above.
 ---------------------------------------------------------------
  

 Cite this work as:
 Gaussian 16, Revision A.03,
 M. J. Frisch, G. W. Trucks, H. B. Schlegel, G. E. Scuseria, 
 M. A. Robb, J. R. Cheeseman, G. Scalmani, V. Barone, 
 G. A. Petersson, H. Nakatsuji, X. Li, M. Caricato, A. V. Marenich, 
 J. Bloino, B. G. Janesko, R. Gomperts, B. Mennucci, H. P. Hratchian, 
 J. V. Ortiz, A. F. Izmaylov, J. L. Sonnenberg, D. Williams-Young, 
 F. Ding, F. Lipparini, F. Egidi, J. Goings, B. Peng, A. Petrone, 
 T. Henderson, D. Ranasinghe, V. G. Zakrzewski, J. Gao, N. Rega, 
 G. Zheng, W. Liang, M. Hada, M. Ehara, K. Toyota, R. Fukuda, 
 J. Hasegawa, M. Ishida, T. Nakajima, Y. Honda, O. Kitao, H. Nakai, 
 T. Vreven, K. Throssell, J. A. Montgomery, Jr., J. E. Peralta, 
 F. Ogliaro, M. J. Bearpark, J. J. Heyd, E. N. Brothers, K. N. Kudin, 
 V. N. Staroverov, T. A. Keith, R. Kobayashi, J. Normand, 
 K. Raghavachari, A. P. Rendell, J. C. Burant, S. S. Iyengar, 
 J. Tomasi, M. Cossi, J. M. Millam, M. Klene, C. Adamo, R. Cammi, 
 J. W. Ochterski, R. L. Martin, K. Morokuma, O. Farkas, 
 J. B. Foresman, and D. J. Fox, Gaussian, Inc., Wallingford CT, 2016.
 
 ******************************************
 Gaussian 16:  EM64L-G16RevA.03 25-Dec-2016
                17-Sep-2021 
 ******************************************
 %chk=01-IsoP_2165_gaussian.chk
 %nproc=1
 Will use up to    1 processors via shared memory.
 %mem=4000Mb
 ---------------------
 #p opt mp2/6-31g(d,p)
 ---------------------
 1/18=20,19=15,38=1/1,3;
 2/9=110,12=2,17=6,18=5,40=1/2;
 3/5=1,6=6,7=101,11=9,25=1,30=1,71=1/1,2,3;
 4//1;
 5/5=2,38=5/2;
 8/6=4,10=2/1;
 9/15=2,16=-3/6;
 10/5=1/2;
 6/7=2,8=2,9=2,10=2/1;
 7/12=2/1,2,3,16;
 1/18=20,19=15/3(2);
 2/9=110/2;
 99//99;
 2/9=110/2;
 3/5=1,6=6,7=101,11=9,25=1,30=1,71=1/1,2,3;
 4/5=5,16=3,69=1/1;
 5/5=2,38=5/2;
 8/6=4,10=2/1;
 9/15=2,16=-3/6;
 10/5=1/2;
 7/12=2/1,2,3,16;
 1/18=20,19=15/3(-8);
 2/9=110/2;
 6/7=2,8=2,9=2,10=2/1;
 99//99;
 Leave Link    1 at Fri Sep 17 13:32:35 2021, MaxMem=   524288000 cpu:               0.0 elap:               0.2
 (Enter /opt/gaussian/g16_legacy/l101.exe)
 --------------------------------------------------
 Conformer number 2165. Energy MM = 23.287 kcal/mol
 --------------------------------------------------
 Symbolic Z-matrix:
 Charge =  0 Multiplicity = 1
 C                    -0.8925   -0.1077   -0.3469 
 H                    -0.4937   -0.0127   -1.3659 
 H                    -1.2998   -1.1246   -0.298 
 C                    -1.9903    0.9175   -0.1511 
 C                    -1.7495    2.2451   -0.8234 
 H                    -0.8382    2.7112   -0.4358 
 H                    -2.574     2.9476   -0.6617 
 H                    -1.6386    2.1086   -1.9041 
 C                    -3.1255    0.6966    0.5411 
 H                    -3.863     1.4965    0.6014 
 C                    -3.5133   -0.5426    1.284 
 H                    -4.374    -1.0127    0.7988 
 H                    -3.801    -0.2791    2.307 
 H                    -2.7096   -1.279     1.352 
 C                     3.0294    0.4498   -0.6918 
 H                     3.3758    0.2709   -1.7156 
 H                     2.2721    1.2351   -0.7478 
 H                     3.871     0.8328   -0.1057 
 C                     2.5195   -0.83     -0.0889 
 C                     3.4863   -1.9824   -0.1717 
 H                     3.0859   -2.895     0.2824 
 H                     3.7209   -2.2069   -1.2173 
 H                     4.4169   -1.7335    0.3488 
 C                     1.3074   -0.9898    0.4775 
 H                     1.0411   -1.9732    0.8656 
 C                     0.2392    0.0529    0.6732 
 H                    -0.1582   -0.0597    1.6903 
 H                     0.6554    1.0644    0.6316 
 
 ITRead=  0  0  0  0  0  0  0  0  0  0  0  0  0  0  0  0  0  0  0  0
 ITRead=  0  0  0  0  0  0  0  0
 MicOpt= -1 -1 -1 -1 -1 -1 -1 -1 -1 -1 -1 -1 -1 -1 -1 -1 -1 -1 -1 -1
 MicOpt= -1 -1 -1 -1 -1 -1 -1 -1
 NAtoms=     28 NQM=       28 NQMF=       0 NMMI=      0 NMMIF=      0
                NMic=       0 NMicF=      0.
                    Isotopes and Nuclear Properties:
 (Nuclear quadrupole moments (NQMom) in fm**2, nuclear magnetic moments (NMagM)
  in nuclear magnetons)

  Atom         1           2           3           4           5           6           7           8           9          10
 IAtWgt=          12           1           1          12          12           1           1           1          12           1
 AtmWgt=  12.0000000   1.0078250   1.0078250  12.0000000  12.0000000   1.0078250   1.0078250   1.0078250  12.0000000   1.0078250
 NucSpn=           0           1           1           0           0           1           1           1           0           1
 AtZEff=  -0.0000000  -0.0000000  -0.0000000  -0.0000000  -0.0000000  -0.0000000  -0.0000000  -0.0000000  -0.0000000  -0.0000000
 NQMom=    0.0000000   0.0000000   0.0000000   0.0000000   0.0000000   0.0000000   0.0000000   0.0000000   0.0000000   0.0000000
 NMagM=    0.0000000   2.7928460   2.7928460   0.0000000   0.0000000   2.7928460   2.7928460   2.7928460   0.0000000   2.7928460
 AtZNuc=   6.0000000   1.0000000   1.0000000   6.0000000   6.0000000   1.0000000   1.0000000   1.0000000   6.0000000   1.0000000

  Atom        11          12          13          14          15          16          17          18          19          20
 IAtWgt=          12           1           1           1          12           1           1           1          12          12
 AtmWgt=  12.0000000   1.0078250   1.0078250   1.0078250  12.0000000   1.0078250   1.0078250   1.0078250  12.0000000  12.0000000
 NucSpn=           0           1           1           1           0           1           1           1           0           0
 AtZEff=  -0.0000000  -0.0000000  -0.0000000  -0.0000000  -0.0000000  -0.0000000  -0.0000000  -0.0000000  -0.0000000  -0.0000000
 NQMom=    0.0000000   0.0000000   0.0000000   0.0000000   0.0000000   0.0000000   0.0000000   0.0000000   0.0000000   0.0000000
 NMagM=    0.0000000   2.7928460   2.7928460   2.7928460   0.0000000   2.7928460   2.7928460   2.7928460   0.0000000   0.0000000
 AtZNuc=   6.0000000   1.0000000   1.0000000   1.0000000   6.0000000   1.0000000   1.0000000   1.0000000   6.0000000   6.0000000

  Atom        21          22          23          24          25          26          27          28
 IAtWgt=           1           1           1          12           1          12           1           1
 AtmWgt=   1.0078250   1.0078250   1.0078250  12.0000000   1.0078250  12.0000000   1.0078250   1.0078250
 NucSpn=           1           1           1           0           1           0           1           1
 AtZEff=  -0.0000000  -0.0000000  -0.0000000  -0.0000000  -0.0000000  -0.0000000  -0.0000000  -0.0000000
 NQMom=    0.0000000   0.0000000   0.0000000   0.0000000   0.0000000   0.0000000   0.0000000   0.0000000
 NMagM=    2.7928460   2.7928460   2.7928460   0.0000000   2.7928460   0.0000000   2.7928460   2.7928460
 AtZNuc=   1.0000000   1.0000000   1.0000000   6.0000000   1.0000000   6.0000000   1.0000000   1.0000000
 Leave Link  101 at Fri Sep 17 13:32:36 2021, MaxMem=   524288000 cpu:               0.3 elap:               0.4
 (Enter /opt/gaussian/g16_legacy/l103.exe)

 GradGradGradGradGradGradGradGradGradGradGradGradGradGradGradGradGradGrad
 Berny optimization.
 Initialization pass.
                           ----------------------------
                           !    Initial Parameters    !
                           ! (Angstroms and Degrees)  !
 --------------------------                            --------------------------
 ! Name  Definition              Value          Derivative Info.                !
 --------------------------------------------------------------------------------
 ! R1    R(1,2)                  1.0984         estimate D2E/DX2                !
 ! R2    R(1,3)                  1.0965         estimate D2E/DX2                !
 ! R3    R(1,4)                  1.5148         estimate D2E/DX2                !
 ! R4    R(1,26)                 1.532          estimate D2E/DX2                !
 ! R5    R(4,5)                  1.5075         estimate D2E/DX2                !
 ! R6    R(4,9)                  1.3478         estimate D2E/DX2                !
 ! R7    R(5,6)                  1.0945         estimate D2E/DX2                !
 ! R8    R(5,7)                  1.0952         estimate D2E/DX2                !
 ! R9    R(5,8)                  1.0949         estimate D2E/DX2                !
 ! R10   R(9,10)                 1.0897         estimate D2E/DX2                !
 ! R11   R(9,11)                 1.496          estimate D2E/DX2                !
 ! R12   R(11,12)                1.0942         estimate D2E/DX2                !
 ! R13   R(11,13)                1.0949         estimate D2E/DX2                !
 ! R14   R(11,14)                1.0922         estimate D2E/DX2                !
 ! R15   R(15,16)                1.0955         estimate D2E/DX2                !
 ! R16   R(15,17)                1.0924         estimate D2E/DX2                !
 ! R17   R(15,18)                1.0948         estimate D2E/DX2                !
 ! R18   R(15,19)                1.5038         estimate D2E/DX2                !
 ! R19   R(19,20)                1.5065         estimate D2E/DX2                !
 ! R20   R(19,24)                1.3474         estimate D2E/DX2                !
 ! R21   R(20,21)                1.0952         estimate D2E/DX2                !
 ! R22   R(20,22)                1.0949         estimate D2E/DX2                !
 ! R23   R(20,23)                1.0949         estimate D2E/DX2                !
 ! R24   R(24,25)                1.0902         estimate D2E/DX2                !
 ! R25   R(24,26)                1.5055         estimate D2E/DX2                !
 ! R26   R(26,27)                1.0978         estimate D2E/DX2                !
 ! R27   R(26,28)                1.0946         estimate D2E/DX2                !
 ! A1    A(2,1,3)              104.8594         estimate D2E/DX2                !
 ! A2    A(2,1,4)              108.9364         estimate D2E/DX2                !
 ! A3    A(2,1,26)             109.9047         estimate D2E/DX2                !
 ! A4    A(3,1,4)              110.6521         estimate D2E/DX2                !
 ! A5    A(3,1,26)             109.993          estimate D2E/DX2                !
 ! A6    A(4,1,26)             112.2306         estimate D2E/DX2                !
 ! A7    A(1,4,5)              115.0007         estimate D2E/DX2                !
 ! A8    A(1,4,9)              124.4622         estimate D2E/DX2                !
 ! A9    A(5,4,9)              120.5251         estimate D2E/DX2                !
 ! A10   A(4,5,6)              110.4936         estimate D2E/DX2                !
 ! A11   A(4,5,7)              112.2592         estimate D2E/DX2                !
 ! A12   A(4,5,8)              110.2779         estimate D2E/DX2                !
 ! A13   A(6,5,7)              107.5401         estimate D2E/DX2                !
 ! A14   A(6,5,8)              108.5596         estimate D2E/DX2                !
 ! A15   A(7,5,8)              107.5745         estimate D2E/DX2                !
 ! A16   A(4,9,10)             118.5648         estimate D2E/DX2                !
 ! A17   A(4,9,11)             127.5275         estimate D2E/DX2                !
 ! A18   A(10,9,11)            113.9005         estimate D2E/DX2                !
 ! A19   A(9,11,12)            109.8525         estimate D2E/DX2                !
 ! A20   A(9,11,13)            109.4366         estimate D2E/DX2                !
 ! A21   A(9,11,14)            113.4959         estimate D2E/DX2                !
 ! A22   A(12,11,13)           108.1214         estimate D2E/DX2                !
 ! A23   A(12,11,14)           108.4681         estimate D2E/DX2                !
 ! A24   A(13,11,14)           107.3053         estimate D2E/DX2                !
 ! A25   A(16,15,17)           106.7794         estimate D2E/DX2                !
 ! A26   A(16,15,18)           108.323          estimate D2E/DX2                !
 ! A27   A(16,15,19)           110.0544         estimate D2E/DX2                !
 ! A28   A(17,15,18)           107.9919         estimate D2E/DX2                !
 ! A29   A(17,15,19)           113.4089         estimate D2E/DX2                !
 ! A30   A(18,15,19)           110.1065         estimate D2E/DX2                !
 ! A31   A(15,19,20)           114.291          estimate D2E/DX2                !
 ! A32   A(15,19,24)           125.0638         estimate D2E/DX2                !
 ! A33   A(20,19,24)           120.6426         estimate D2E/DX2                !
 ! A34   A(19,20,21)           112.3346         estimate D2E/DX2                !
 ! A35   A(19,20,22)           110.2947         estimate D2E/DX2                !
 ! A36   A(19,20,23)           110.2071         estimate D2E/DX2                !
 ! A37   A(21,20,22)           107.6656         estimate D2E/DX2                !
 ! A38   A(21,20,23)           107.6411         estimate D2E/DX2                !
 ! A39   A(22,20,23)           108.571          estimate D2E/DX2                !
 ! A40   A(19,24,25)           118.4469         estimate D2E/DX2                !
 ! A41   A(19,24,26)           127.6454         estimate D2E/DX2                !
 ! A42   A(25,24,26)           113.8997         estimate D2E/DX2                !
 ! A43   A(1,26,24)            111.4053         estimate D2E/DX2                !
 ! A44   A(1,26,27)            109.8009         estimate D2E/DX2                !
 ! A45   A(1,26,28)            110.637          estimate D2E/DX2                !
 ! A46   A(24,26,27)           107.8334         estimate D2E/DX2                !
 ! A47   A(24,26,28)           111.4257         estimate D2E/DX2                !
 ! A48   A(27,26,28)           105.5245         estimate D2E/DX2                !
 ! D1    D(2,1,4,5)            -36.9518         estimate D2E/DX2                !
 ! D2    D(2,1,4,9)            141.7921         estimate D2E/DX2                !
 ! D3    D(3,1,4,5)           -151.7267         estimate D2E/DX2                !
 ! D4    D(3,1,4,9)             27.0172         estimate D2E/DX2                !
 ! D5    D(26,1,4,5)            84.9903         estimate D2E/DX2                !
 ! D6    D(26,1,4,9)           -96.2658         estimate D2E/DX2                !
 ! D7    D(2,1,26,24)          -59.632          estimate D2E/DX2                !
 ! D8    D(2,1,26,27)         -179.0217         estimate D2E/DX2                !
 ! D9    D(2,1,26,28)           64.902          estimate D2E/DX2                !
 ! D10   D(3,1,26,24)           55.3271         estimate D2E/DX2                !
 ! D11   D(3,1,26,27)          -64.0625         estimate D2E/DX2                !
 ! D12   D(3,1,26,28)          179.8611         estimate D2E/DX2                !
 ! D13   D(4,1,26,24)          178.9794         estimate D2E/DX2                !
 ! D14   D(4,1,26,27)           59.5897         estimate D2E/DX2                !
 ! D15   D(4,1,26,28)          -56.4867         estimate D2E/DX2                !
 ! D16   D(1,4,5,6)            -60.5506         estimate D2E/DX2                !
 ! D17   D(1,4,5,7)            179.4084         estimate D2E/DX2                !
 ! D18   D(1,4,5,8)             59.4719         estimate D2E/DX2                !
 ! D19   D(9,4,5,6)            120.6517         estimate D2E/DX2                !
 ! D20   D(9,4,5,7)              0.6107         estimate D2E/DX2                !
 ! D21   D(9,4,5,8)           -119.3258         estimate D2E/DX2                !
 ! D22   D(1,4,9,10)          -178.5625         estimate D2E/DX2                !
 ! D23   D(1,4,9,11)             2.4839         estimate D2E/DX2                !
 ! D24   D(5,4,9,10)             0.1159         estimate D2E/DX2                !
 ! D25   D(5,4,9,11)          -178.8377         estimate D2E/DX2                !
 ! D26   D(4,9,11,12)         -113.5759         estimate D2E/DX2                !
 ! D27   D(4,9,11,13)          127.8643         estimate D2E/DX2                !
 ! D28   D(4,9,11,14)            8.0387         estimate D2E/DX2                !
 ! D29   D(10,9,11,12)          67.4294         estimate D2E/DX2                !
 ! D30   D(10,9,11,13)         -51.1305         estimate D2E/DX2                !
 ! D31   D(10,9,11,14)        -170.9561         estimate D2E/DX2                !
 ! D32   D(16,15,19,20)         52.5811         estimate D2E/DX2                !
 ! D33   D(16,15,19,24)       -126.8314         estimate D2E/DX2                !
 ! D34   D(17,15,19,20)        172.1139         estimate D2E/DX2                !
 ! D35   D(17,15,19,24)         -7.2986         estimate D2E/DX2                !
 ! D36   D(18,15,19,20)        -66.7608         estimate D2E/DX2                !
 ! D37   D(18,15,19,24)        113.8268         estimate D2E/DX2                !
 ! D38   D(15,19,20,21)        179.5983         estimate D2E/DX2                !
 ! D39   D(15,19,20,22)        -60.2881         estimate D2E/DX2                !
 ! D40   D(15,19,20,23)         59.576          estimate D2E/DX2                !
 ! D41   D(24,19,20,21)         -0.9607         estimate D2E/DX2                !
 ! D42   D(24,19,20,22)        119.153          estimate D2E/DX2                !
 ! D43   D(24,19,20,23)       -120.9829         estimate D2E/DX2                !
 ! D44   D(15,19,24,25)        178.8613         estimate D2E/DX2                !
 ! D45   D(15,19,24,26)         -2.2341         estimate D2E/DX2                !
 ! D46   D(20,19,24,25)         -0.5163         estimate D2E/DX2                !
 ! D47   D(20,19,24,26)        178.3883         estimate D2E/DX2                !
 ! D48   D(19,24,26,1)         103.6631         estimate D2E/DX2                !
 ! D49   D(19,24,26,27)       -135.7846         estimate D2E/DX2                !
 ! D50   D(19,24,26,28)        -20.4265         estimate D2E/DX2                !
 ! D51   D(25,24,26,1)         -77.3904         estimate D2E/DX2                !
 ! D52   D(25,24,26,27)         43.162          estimate D2E/DX2                !
 ! D53   D(25,24,26,28)        158.52           estimate D2E/DX2                !
 --------------------------------------------------------------------------------
 Trust Radius=3.00D-01 FncErr=1.00D-07 GrdErr=1.00D-07 EigMax=2.50D+02 EigMin=1.00D-04
 Number of steps in this run=    138 maximum allowed number of steps=    168.
 GradGradGradGradGradGradGradGradGradGradGradGradGradGradGradGradGradGrad

 Leave Link  103 at Fri Sep 17 13:32:36 2021, MaxMem=   524288000 cpu:               0.0 elap:               0.1
 (Enter /opt/gaussian/g16_legacy/l202.exe)
                          Input orientation:                          
 ---------------------------------------------------------------------
 Center     Atomic      Atomic             Coordinates (Angstroms)
 Number     Number       Type             X           Y           Z
 ---------------------------------------------------------------------
      1          6           0       -0.892500   -0.107700   -0.346900
      2          1           0       -0.493700   -0.012700   -1.365900
      3          1           0       -1.299800   -1.124600   -0.298000
      4          6           0       -1.990300    0.917500   -0.151100
      5          6           0       -1.749500    2.245100   -0.823400
      6          1           0       -0.838200    2.711200   -0.435800
      7          1           0       -2.574000    2.947600   -0.661700
      8          1           0       -1.638600    2.108600   -1.904100
      9          6           0       -3.125500    0.696600    0.541100
     10          1           0       -3.863000    1.496500    0.601400
     11          6           0       -3.513300   -0.542600    1.284000
     12          1           0       -4.374000   -1.012700    0.798800
     13          1           0       -3.801000   -0.279100    2.307000
     14          1           0       -2.709600   -1.279000    1.352000
     15          6           0        3.029400    0.449800   -0.691800
     16          1           0        3.375800    0.270900   -1.715600
     17          1           0        2.272100    1.235100   -0.747800
     18          1           0        3.871000    0.832800   -0.105700
     19          6           0        2.519500   -0.830000   -0.088900
     20          6           0        3.486300   -1.982400   -0.171700
     21          1           0        3.085900   -2.895000    0.282400
     22          1           0        3.720900   -2.206900   -1.217300
     23          1           0        4.416900   -1.733500    0.348800
     24          6           0        1.307400   -0.989800    0.477500
     25          1           0        1.041100   -1.973200    0.865600
     26          6           0        0.239200    0.052900    0.673200
     27          1           0       -0.158200   -0.059700    1.690300
     28          1           0        0.655400    1.064400    0.631600
 ---------------------------------------------------------------------
                    Distance matrix (angstroms):
                    1          2          3          4          5
     1  C    0.000000
     2  H    1.098375   0.000000
     3  H    1.096526   1.739692   0.000000
     4  C    1.514773   2.140286   2.160681   0.000000
     5  C    2.548955   2.639886   3.439935   1.507479   0.000000
     6  H    2.820824   2.898861   3.865931   2.150755   1.094509
     7  H    3.501628   3.686044   4.282368   2.173183   1.095196
     8  H    2.809541   2.469892   3.626007   2.148353   1.094917
     9  C    2.534114   3.326579   2.711833   1.347819   2.480542
    10  H    3.506651   4.183316   3.774795   2.099643   2.656565
    11  C    3.117301   4.052252   2.782271   2.551653   3.914511
    12  H    3.775248   4.554410   3.265914   3.210920   4.486958
    13  H    3.941058   4.949687   3.709029   3.279137   4.514382
    14  H    2.749556   3.728365   2.175747   2.757048   4.251287
    15  C    3.976313   3.616704   4.623396   5.070354   5.106692
    16  H    4.498340   3.895606   5.081166   5.626791   5.564368
    17  H    3.461001   3.096563   4.304529   4.315666   4.147178
    18  H    4.861445   4.620993   5.532230   5.862088   5.839495
    19  C    3.497145   3.373141   3.836348   4.836933   5.312259
    20  C    4.766454   4.598503   4.864003   6.197015   6.760922
    21  H    4.898237   4.882426   4.765034   6.363245   7.143145
    22  H    5.142732   4.753888   5.217654   6.596701   7.064045
    23  H    5.596155   5.478626   5.785306   6.951972   7.431541
    24  C    2.509441   2.756231   2.723429   3.861056   4.636977
    25  H    2.947720   3.343466   2.748436   4.310361   5.332375
    26  C    1.532038   2.167804   2.167546   2.529362   3.316697
    27  H    2.166030   3.074919   2.527964   2.775295   3.763380
    28  H    2.174230   2.543734   3.078747   2.762956   3.048708
                    6          7          8          9         10
     6  H    0.000000
     7  H    1.766329   0.000000
     8  H    1.777547   1.767046   0.000000
     9  C    3.200732   2.611107   3.191178   0.000000
    10  H    3.420628   2.315736   3.405900   1.089671   0.000000
    11  C    4.549845   4.104818   4.550532   1.495963   2.178569
    12  H    5.281434   4.588795   4.952837   2.132339   2.568301
    13  H    5.024244   4.553054   5.301929   2.127603   2.462858
    14  H    4.756055   4.683751   4.819239   2.175667   3.097924
    15  C    4.487516   6.134982   5.100148   6.282018   7.090354
    16  H    5.034953   6.608748   5.343864   6.894985   7.698754
    17  H    3.456903   5.140501   4.170564   5.575422   6.287139
    18  H    5.080740   6.805846   5.934442   7.027653   7.794565
    19  C    4.892299   6.367268   5.405563   5.881618   6.828281
    20  C    6.387561   7.827658   6.782484   7.169451   8.167781
    21  H    6.880687   8.189125   7.220644   7.179694   8.226436
    22  H    6.751581   8.154957   6.915163   7.641693   8.633561
    23  H    6.927267   8.473871   7.517072   7.926548   8.891201
    24  C    4.374370   5.645012   4.893978   4.743268   5.738473
    25  H    5.212390   6.294114   5.613655   4.959202   6.013220
    26  C    3.075261   4.251510   3.794010   3.428266   4.349389
    27  H    3.558172   4.517947   4.451159   3.270706   4.163293
    28  H    2.466198   3.955767   3.575271   3.799825   4.539115
                   11         12         13         14         15
    11  C    0.000000
    12  H    1.094174   0.000000
    13  H    1.094866   1.772333   0.000000
    14  H    1.092173   1.774027   1.761527   0.000000
    15  C    6.906198   7.692277   7.495229   6.332613   0.000000
    16  H    7.557717   8.247984   8.245621   6.988881   1.095520
    17  H    6.384300   7.184373   6.964707   5.962147   1.092399
    18  H    7.638775   8.497295   8.118930   7.063206   1.094757
    19  C    6.193717   6.952822   6.781781   5.442544   1.503787
    20  C    7.292907   7.979129   7.883522   6.419160   2.528806
    21  H    7.077177   7.711020   7.640113   6.110918   3.484242
    22  H    7.833265   8.427228   8.527373   6.986675   2.795063
    23  H    8.073470   8.831873   8.572264   7.211101   2.788333
    24  C    4.908114   5.690524   5.472469   4.121247   2.530809
    25  H    4.792101   5.500030   5.328559   3.845289   3.499966
    26  C    3.848240   4.736338   4.370668   3.306078   3.131449
    27  H    3.413937   4.413157   3.701141   2.847943   4.011831
    28  H    4.515101   5.444003   4.946863   4.163379   2.786574
                   16         17         18         19         20
    16  H    0.000000
    17  H    1.756267   0.000000
    18  H    1.775594   1.769356   0.000000
    19  C    2.142751   2.181741   2.142834   0.000000
    20  C    2.733715   3.486901   2.842130   1.506514   0.000000
    21  H    3.754859   4.333741   3.829295   2.173223   1.095156
    22  H    2.550861   3.763883   3.240056   2.147674   1.094859
    23  H    3.059944   3.822994   2.662794   2.146630   1.094937
    24  C    3.267618   2.717018   3.199068   1.347417   2.480790
    25  H    4.141184   3.796263   4.101877   2.098486   2.656140
    26  C    3.948690   2.747639   3.795379   2.561265   3.924278
    27  H    4.919208   3.677934   4.500736   3.305903   4.521747
    28  H    3.679615   2.132042   3.307164   2.753678   4.235832
                   21         22         23         24         25
    21  H    0.000000
    22  H    1.767995   0.000000
    23  H    1.767782   1.777974   0.000000
    24  C    2.613602   3.190401   3.199788   0.000000
    25  H    2.317551   3.402119   3.423531   1.090235   0.000000
    26  C    4.116618   4.561022   4.555177   1.505514   2.187497
    27  H    4.532692   5.302077   5.052996   2.117535   2.404149
    28  H    4.658983   4.849446   4.696499   2.160692   3.070917
                   26         27         28
    26  C    0.000000
    27  H    1.097770   0.000000
    28  H    1.094571   1.745391   0.000000
 Stoichiometry    C10H18
 Framework group  C1[X(C10H18)]
 Deg. of freedom    78
 Full point group                 C1      NOp   1
 Largest Abelian subgroup         C1      NOp   1
 Largest concise Abelian subgroup C1      NOp   1
                         Standard orientation:                         
 ---------------------------------------------------------------------
 Center     Atomic      Atomic             Coordinates (Angstroms)
 Number     Number       Type             X           Y           Z
 ---------------------------------------------------------------------
      1          6           0        0.745805   -0.045522    0.580383
      2          1           0        0.286582    0.606625    1.335530
      3          1           0        0.871548   -1.012132    1.082603
      4          6           0        2.090099    0.530293    0.185607
      5          6           0        2.144048    2.035378    0.120011
      6          1           0        1.432568    2.412370   -0.621355
      7          1           0        3.137244    2.403141   -0.158851
      8          1           0        1.893330    2.466912    1.094569
      9          6           0        3.189404   -0.205979   -0.071391
     10          1           0        4.114858    0.310448   -0.324808
     11          6           0        3.306939   -1.697313   -0.075166
     12          1           0        3.959066   -2.020721    0.741752
     13          1           0        3.755115   -2.025066   -1.018802
     14          1           0        2.347686   -2.209948    0.024242
     15          6           0       -2.901815    1.323902   -0.213724
     16          1           0       -3.383922    1.735067    0.679965
     17          1           0       -1.972886    1.880975   -0.355486
     18          1           0       -3.548631    1.520237   -1.074871
     19          6           0       -2.691971   -0.156323   -0.051631
     20          6           0       -3.933071   -0.920023    0.330490
     21          1           0       -3.745725   -1.994153    0.433013
     22          1           0       -4.322243   -0.557797    1.287598
     23          1           0       -4.707372   -0.789591   -0.432618
     24          6           0       -1.515305   -0.793307   -0.210499
     25          1           0       -1.481942   -1.870807   -0.047733
     26          6           0       -0.194764   -0.197040   -0.619414
     27          1           0        0.258257   -0.863012   -1.365302
     28          1           0       -0.329744    0.763048   -1.127447
 ---------------------------------------------------------------------
 Rotational constants (GHZ):           2.4778985           0.5324370           0.4581661
 Leave Link  202 at Fri Sep 17 13:32:36 2021, MaxMem=   524288000 cpu:               0.1 elap:               0.2
 (Enter /opt/gaussian/g16_legacy/l301.exe)
 Standard basis: 6-31G(d,p) (6D, 7F)
 Ernie: Thresh=  0.10000D-02 Tol=  0.10000D-05 Strict=F.
 There are   240 symmetry adapted cartesian basis functions of A   symmetry.
 There are   240 symmetry adapted basis functions of A   symmetry.
   240 basis functions,   406 primitive gaussians,   240 cartesian basis functions
    39 alpha electrons       39 beta electrons
       nuclear repulsion energy       513.2779926611 Hartrees.
 IExCor=    0 DFT=F Ex=HF Corr=None ExCW=0 ScaHFX=  1.000000
 ScaDFX=  1.000000  1.000000  1.000000  1.000000 ScalE2=  1.000000  1.000000
 IRadAn=      5 IRanWt=     -1 IRanGd=            0 ICorTp=0 IEmpDi=  4
 NAtoms=   28 NActive=   28 NUniq=   28 SFac= 1.00D+00 NAtFMM=   60 NAOKFM=F Big=F
 Integral buffers will be    131072 words long.
 Raffenetti 1 integral format.
 Two-electron integral symmetry is turned on.
 Leave Link  301 at Fri Sep 17 13:32:37 2021, MaxMem=   524288000 cpu:               0.1 elap:               0.5
 (Enter /opt/gaussian/g16_legacy/l302.exe)
 NPDir=0 NMtPBC=     1 NCelOv=     1 NCel=       1 NClECP=     1 NCelD=      1
         NCelK=      1 NCelE2=     1 NClLst=     1 CellRange=     0.0.
 One-electron integrals computed using PRISM.
 One-electron integral symmetry used in STVInt
 NBasis=   240 RedAO= T EigKep=  2.09D-03  NBF=   240
 NBsUse=   240 1.00D-06 EigRej= -1.00D+00 NBFU=   240
 Leave Link  302 at Fri Sep 17 13:32:38 2021, MaxMem=   524288000 cpu:               0.3 elap:               0.8
 (Enter /opt/gaussian/g16_legacy/l303.exe)
 DipDrv:  MaxL=1.
 Leave Link  303 at Fri Sep 17 13:32:38 2021, MaxMem=   524288000 cpu:               0.1 elap:               0.3
 (Enter /opt/gaussian/g16_legacy/l401.exe)
 ExpMin= 1.61D-01 ExpMax= 3.05D+03 ExpMxC= 4.57D+02 IAcc=3 IRadAn=         5 AccDes= 0.00D+00
 Harris functional with IExCor=  205 and IRadAn=       5 diagonalized for initial guess.
 HarFok:  IExCor=  205 AccDes= 0.00D+00 IRadAn=         5 IDoV= 1 UseB2=F ITyADJ=14
 ICtDFT=  3500011 ScaDFX=  1.000000  1.000000  1.000000  1.000000
 FoFCou: FMM=F IPFlag=           0 FMFlag=      100000 FMFlg1=           0
         NFxFlg=           0 DoJE=T BraDBF=F KetDBF=T FulRan=T
         wScrn=  0.000000 ICntrl=       500 IOpCl=  0 I1Cent=   200000004 NGrid=           0
         NMat0=    1 NMatS0=      1 NMatT0=    0 NMatD0=    1 NMtDS0=    0 NMtDT0=    0
 Petite list used in FoFCou.
 Harris En= -390.110050953493    
 JPrj=0 DoOrth=F DoCkMO=F.
 Leave Link  401 at Fri Sep 17 13:32:50 2021, MaxMem=   524288000 cpu:              11.0 elap:              11.4
 (Enter /opt/gaussian/g16_legacy/l502.exe)
 Keep R1 ints in memory in canonical form, NReq=425198025.
 FoFCou: FMM=F IPFlag=           0 FMFlag=           0 FMFlg1=           0
         NFxFlg=           0 DoJE=F BraDBF=F KetDBF=F FulRan=T
         wScrn=  0.000000 ICntrl=       600 IOpCl=  0 I1Cent=           0 NGrid=           0
         NMat0=    1 NMatS0=  28920 NMatT0=    0 NMatD0=    1 NMtDS0=    0 NMtDT0=    0
 Symmetry not used in FoFCou.
 Two-electron integral symmetry not used.
 Closed shell SCF:
 Using DIIS extrapolation, IDIIS=  1040.
 NGot=   524288000 LenX=   105970886 LenY=   105912845
 Requested convergence on RMS density matrix=1.00D-08 within 128 cycles.
 Requested convergence on MAX density matrix=1.00D-06.
 Requested convergence on             energy=1.00D-06.
 No special actions if energy rises.

 Cycle   1  Pass 1  IDiag  1:
 E= -388.532776163464    
 DIIS: error= 5.01D-02 at cycle   1 NSaved=   1.
 NSaved= 1 IEnMin= 1 EnMin= -388.532776163464     IErMin= 1 ErrMin= 5.01D-02
 ErrMax= 5.01D-02  0.00D+00 EMaxC= 1.00D-01 BMatC= 8.07D-01 BMatP= 8.07D-01
 IDIUse=3 WtCom= 4.99D-01 WtEn= 5.01D-01
 Coeff-Com:  0.100D+01
 Coeff-En:   0.100D+01
 Coeff:      0.100D+01
 Gap=     0.508 Goal=   None    Shift=    0.000
 GapD=    0.508 DampG=2.000 DampE=0.500 DampFc=1.0000 IDamp=-1.
 RMSDP=3.99D-03 MaxDP=1.15D-01              OVMax= 1.39D-01

 Cycle   2  Pass 1  IDiag  1:
 E= -389.074226251088     Delta-E=       -0.541450087624 Rises=F Damp=F
 DIIS: error= 1.46D-02 at cycle   2 NSaved=   2.
 NSaved= 2 IEnMin= 2 EnMin= -389.074226251088     IErMin= 2 ErrMin= 1.46D-02
 ErrMax= 1.46D-02  0.00D+00 EMaxC= 1.00D-01 BMatC= 8.64D-02 BMatP= 8.07D-01
 IDIUse=3 WtCom= 8.54D-01 WtEn= 1.46D-01
 Coeff-Com:  0.183D+00 0.817D+00
 Coeff-En:   0.000D+00 0.100D+01
 Coeff:      0.156D+00 0.844D+00
 Gap=     0.552 Goal=   None    Shift=    0.000
 RMSDP=1.62D-03 MaxDP=3.04D-02 DE=-5.41D-01 OVMax= 4.55D-02

 Cycle   3  Pass 1  IDiag  1:
 E= -389.151648052882     Delta-E=       -0.077421801793 Rises=F Damp=F
 DIIS: error= 2.67D-03 at cycle   3 NSaved=   3.
 NSaved= 3 IEnMin= 3 EnMin= -389.151648052882     IErMin= 3 ErrMin= 2.67D-03
 ErrMax= 2.67D-03  0.00D+00 EMaxC= 1.00D-01 BMatC= 3.01D-03 BMatP= 8.64D-02
 IDIUse=3 WtCom= 9.73D-01 WtEn= 2.67D-02
 Coeff-Com: -0.245D-01 0.102D+00 0.922D+00
 Coeff-En:   0.000D+00 0.000D+00 0.100D+01
 Coeff:     -0.239D-01 0.997D-01 0.924D+00
 Gap=     0.499 Goal=   None    Shift=    0.000
 RMSDP=2.54D-04 MaxDP=6.75D-03 DE=-7.74D-02 OVMax= 9.70D-03

 Cycle   4  Pass 1  IDiag  1:
 E= -389.155140242614     Delta-E=       -0.003492189732 Rises=F Damp=F
 DIIS: error= 4.95D-04 at cycle   4 NSaved=   4.
 NSaved= 4 IEnMin= 4 EnMin= -389.155140242614     IErMin= 4 ErrMin= 4.95D-04
 ErrMax= 4.95D-04  0.00D+00 EMaxC= 1.00D-01 BMatC= 9.59D-05 BMatP= 3.01D-03
 IDIUse=3 WtCom= 9.95D-01 WtEn= 4.95D-03
 Coeff-Com: -0.443D-02-0.831D-03 0.103D+00 0.903D+00
 Coeff-En:   0.000D+00 0.000D+00 0.000D+00 0.100D+01
 Coeff:     -0.441D-02-0.827D-03 0.102D+00 0.903D+00
 Gap=     0.500 Goal=   None    Shift=    0.000
 RMSDP=7.33D-05 MaxDP=1.75D-03 DE=-3.49D-03 OVMax= 3.51D-03

 Cycle   5  Pass 1  IDiag  1:
 E= -389.155265512620     Delta-E=       -0.000125270006 Rises=F Damp=F
 DIIS: error= 1.73D-04 at cycle   5 NSaved=   5.
 NSaved= 5 IEnMin= 5 EnMin= -389.155265512620     IErMin= 5 ErrMin= 1.73D-04
 ErrMax= 1.73D-04  0.00D+00 EMaxC= 1.00D-01 BMatC= 1.79D-05 BMatP= 9.59D-05
 IDIUse=3 WtCom= 9.98D-01 WtEn= 1.73D-03
 Coeff-Com:  0.248D-02-0.153D-01-0.106D+00 0.196D+00 0.923D+00
 Coeff-En:   0.000D+00 0.000D+00 0.000D+00 0.000D+00 0.100D+01
 Coeff:      0.247D-02-0.153D-01-0.105D+00 0.196D+00 0.923D+00
 Gap=     0.500 Goal=   None    Shift=    0.000
 RMSDP=3.09D-05 MaxDP=7.46D-04 DE=-1.25D-04 OVMax= 1.02D-03

 Cycle   6  Pass 1  IDiag  1:
 E= -389.155289138809     Delta-E=       -0.000023626189 Rises=F Damp=F
 DIIS: error= 3.74D-05 at cycle   6 NSaved=   6.
 NSaved= 6 IEnMin= 6 EnMin= -389.155289138809     IErMin= 6 ErrMin= 3.74D-05
 ErrMax= 3.74D-05  0.00D+00 EMaxC= 1.00D-01 BMatC= 5.51D-07 BMatP= 1.79D-05
 IDIUse=1 WtCom= 1.00D+00 WtEn= 0.00D+00
 Coeff-Com:  0.725D-03-0.330D-02-0.263D-01-0.272D-02 0.163D+00 0.868D+00
 Coeff:      0.725D-03-0.330D-02-0.263D-01-0.272D-02 0.163D+00 0.868D+00
 Gap=     0.500 Goal=   None    Shift=    0.000
 RMSDP=5.42D-06 MaxDP=1.67D-04 DE=-2.36D-05 OVMax= 3.13D-04

 Cycle   7  Pass 1  IDiag  1:
 E= -389.155289992629     Delta-E=       -0.000000853820 Rises=F Damp=F
 DIIS: error= 9.13D-06 at cycle   7 NSaved=   7.
 NSaved= 7 IEnMin= 7 EnMin= -389.155289992629     IErMin= 7 ErrMin= 9.13D-06
 ErrMax= 9.13D-06  0.00D+00 EMaxC= 1.00D-01 BMatC= 4.91D-08 BMatP= 5.51D-07
 IDIUse=1 WtCom= 1.00D+00 WtEn= 0.00D+00
 Coeff-Com: -0.555D-04 0.478D-03 0.325D-02-0.106D-01-0.462D-01 0.126D+00
 Coeff-Com:  0.927D+00
 Coeff:     -0.555D-04 0.478D-03 0.325D-02-0.106D-01-0.462D-01 0.126D+00
 Coeff:      0.927D+00
 Gap=     0.500 Goal=   None    Shift=    0.000
 RMSDP=1.70D-06 MaxDP=4.71D-05 DE=-8.54D-07 OVMax= 8.68D-05

 Cycle   8  Pass 1  IDiag  1:
 E= -389.155290077806     Delta-E=       -0.000000085177 Rises=F Damp=F
 DIIS: error= 2.98D-06 at cycle   8 NSaved=   8.
 NSaved= 8 IEnMin= 8 EnMin= -389.155290077806     IErMin= 8 ErrMin= 2.98D-06
 ErrMax= 2.98D-06  0.00D+00 EMaxC= 1.00D-01 BMatC= 4.91D-09 BMatP= 4.91D-08
 IDIUse=1 WtCom= 1.00D+00 WtEn= 0.00D+00
 Coeff-Com: -0.553D-04 0.226D-03 0.195D-02 0.331D-02-0.143D-01-0.848D-01
 Coeff-Com: -0.129D+00 0.122D+01
 Coeff:     -0.553D-04 0.226D-03 0.195D-02 0.331D-02-0.143D-01-0.848D-01
 Coeff:     -0.129D+00 0.122D+01
 Gap=     0.500 Goal=   None    Shift=    0.000
 RMSDP=7.76D-07 MaxDP=2.58D-05 DE=-8.52D-08 OVMax= 5.60D-05

 Cycle   9  Pass 1  IDiag  1:
 E= -389.155290093103     Delta-E=       -0.000000015297 Rises=F Damp=F
 DIIS: error= 1.35D-06 at cycle   9 NSaved=   9.
 NSaved= 9 IEnMin= 9 EnMin= -389.155290093103     IErMin= 9 ErrMin= 1.35D-06
 ErrMax= 1.35D-06  0.00D+00 EMaxC= 1.00D-01 BMatC= 6.52D-10 BMatP= 4.91D-09
 IDIUse=1 WtCom= 1.00D+00 WtEn= 0.00D+00
 Coeff-Com:  0.122D-04-0.777D-04-0.580D-03 0.123D-02 0.420D-02 0.524D-02
 Coeff-Com: -0.723D-01-0.196D+00 0.126D+01
 Coeff:      0.122D-04-0.777D-04-0.580D-03 0.123D-02 0.420D-02 0.524D-02
 Coeff:     -0.723D-01-0.196D+00 0.126D+01
 Gap=     0.500 Goal=   None    Shift=    0.000
 RMSDP=2.99D-07 MaxDP=1.28D-05 DE=-1.53D-08 OVMax= 2.62D-05

 Cycle  10  Pass 1  IDiag  1:
 E= -389.155290095320     Delta-E=       -0.000000002217 Rises=F Damp=F
 DIIS: error= 4.11D-07 at cycle  10 NSaved=  10.
 NSaved=10 IEnMin=10 EnMin= -389.155290095320     IErMin=10 ErrMin= 4.11D-07
 ErrMax= 4.11D-07  0.00D+00 EMaxC= 1.00D-01 BMatC= 8.50D-11 BMatP= 6.52D-10
 IDIUse=1 WtCom= 1.00D+00 WtEn= 0.00D+00
 Coeff-Com:  0.804D-05-0.368D-04-0.305D-03-0.200D-03 0.163D-02 0.134D-01
 Coeff-Com:  0.123D-01-0.192D+00 0.981D-01 0.107D+01
 Coeff:      0.804D-05-0.368D-04-0.305D-03-0.200D-03 0.163D-02 0.134D-01
 Coeff:      0.123D-01-0.192D+00 0.981D-01 0.107D+01
 Gap=     0.500 Goal=   None    Shift=    0.000
 RMSDP=1.08D-07 MaxDP=3.31D-06 DE=-2.22D-09 OVMax= 8.54D-06

 Cycle  11  Pass 1  IDiag  1:
 E= -389.155290095560     Delta-E=       -0.000000000240 Rises=F Damp=F
 DIIS: error= 1.55D-07 at cycle  11 NSaved=  11.
 NSaved=11 IEnMin=11 EnMin= -389.155290095560     IErMin=11 ErrMin= 1.55D-07
 ErrMax= 1.55D-07  0.00D+00 EMaxC= 1.00D-01 BMatC= 5.89D-12 BMatP= 8.50D-11
 IDIUse=1 WtCom= 1.00D+00 WtEn= 0.00D+00
 Coeff-Com: -0.508D-06 0.459D-05 0.337D-04-0.107D-03-0.456D-03 0.986D-03
 Coeff-Com:  0.874D-02 0.492D-02-0.108D+00 0.927D-01 0.100D+01
 Coeff:     -0.508D-06 0.459D-05 0.337D-04-0.107D-03-0.456D-03 0.986D-03
 Coeff:      0.874D-02 0.492D-02-0.108D+00 0.927D-01 0.100D+01
 Gap=     0.500 Goal=   None    Shift=    0.000
 RMSDP=2.30D-08 MaxDP=1.01D-06 DE=-2.40D-10 OVMax= 2.03D-06

 Cycle  12  Pass 1  IDiag  1:
 E= -389.155290095563     Delta-E=       -0.000000000003 Rises=F Damp=F
 DIIS: error= 4.42D-08 at cycle  12 NSaved=  12.
 NSaved=12 IEnMin=12 EnMin= -389.155290095563     IErMin=12 ErrMin= 4.42D-08
 ErrMax= 4.42D-08  0.00D+00 EMaxC= 1.00D-01 BMatC= 9.46D-13 BMatP= 5.89D-12
 IDIUse=1 WtCom= 1.00D+00 WtEn= 0.00D+00
 Coeff-Com: -0.946D-06 0.495D-05 0.398D-04 0.175D-05-0.291D-03-0.124D-02
 Coeff-Com:  0.339D-03 0.207D-01-0.366D-01-0.106D+00 0.192D+00 0.931D+00
 Coeff:     -0.946D-06 0.495D-05 0.398D-04 0.175D-05-0.291D-03-0.124D-02
 Coeff:      0.339D-03 0.207D-01-0.366D-01-0.106D+00 0.192D+00 0.931D+00
 Gap=     0.500 Goal=   None    Shift=    0.000
 RMSDP=9.74D-09 MaxDP=2.60D-07 DE=-3.41D-12 OVMax= 6.38D-07

 SCF Done:  E(RHF) =  -389.155290096     A.U. after   12 cycles
            NFock= 12  Conv=0.97D-08     -V/T= 2.0014
 KE= 3.886242966038D+02 PE=-1.931190111497D+03 EE= 6.401325321365D+02
 Leave Link  502 at Fri Sep 17 13:33:27 2021, MaxMem=   524288000 cpu:              37.1 elap:              37.4
 (Enter /opt/gaussian/g16_legacy/l801.exe)
 ExpMin= 1.61D-01 ExpMax= 3.05D+03 ExpMxC= 4.57D+02 IAcc=3 IRadAn=         5 AccDes= 0.00D+00
 HarFok:  IExCor=  205 AccDes= 0.00D+00 IRadAn=         5 IDoV=-2 UseB2=F ITyADJ=14
 ICtDFT= 12500011 ScaDFX=  1.000000  1.000000  1.000000  1.000000
 Largest valence mixing into a core orbital is  1.97D-04
 Largest core mixing into a valence orbital is  3.52D-05
 Range of M.O.s used for correlation:    11   240
 NBasis=   240 NAE=    39 NBE=    39 NFC=    10 NFV=     0
 NROrb=    230 NOA=    29 NOB=    29 NVA=   201 NVB=   201
 Leave Link  801 at Fri Sep 17 13:33:29 2021, MaxMem=   524288000 cpu:               1.6 elap:               1.6
 (Enter /opt/gaussian/g16_legacy/l906.exe)
 Frozen-core derivative calculation, NFC=  10 NFV=   0.
 FulOut=F Deriv=T AODrv=T NAtomX=    28
   MMem=          89  MDisk=          29 MDiskD=          29
  W3Min=     2246400 MinDsk=     2795480 NBas6D=         240
 NBas2D=       29244    NTT=       28920    LW2=     2040000
    MDV=   523629461 MDiskM=       30186 NBas2p=       24099
 Fully direct method using O(ONN) memory.
 IMap=   1   2   3   4   5   6   7   8   9  10  11  12  13  14  15  16  17  18  19  20
 IMap=  21  22  23  24  25  26  27  28  29  30  31  32  33  34  35  36  37  38  39
 JobTyp=1 Pass  1:  I=  11 to  39 NPSUse=  1 ParTrn=F ParDer=F DoDerP=T.
 Spin components of T(2) and E(2):
     alpha-alpha T2 =       0.5711616694D-01 E2=     -0.1637352393D+00
     alpha-beta  T2 =       0.3617487774D+00 E2=     -0.1089196851D+01
     beta-beta   T2 =       0.5711616694D-01 E2=     -0.1637352393D+00
 The integrals were generated   1 times.
 ANorm=    0.1214899630D+01
 E2 =    -0.1416667329D+01 EUMP2 =    -0.39057195742462D+03
 Leave Link  906 at Fri Sep 17 13:38:03 2021, MaxMem=   524288000 cpu:             274.3 elap:             274.4
 (Enter /opt/gaussian/g16_legacy/l1002.exe)
 Minotr:  Closed shell wavefunction.
          Computing MP2/KS-MP2 derivatives.
          Using Z-Vector for PSCF gradient.
          Skipping F1 and S1 gradient terms here.
          IDoAtm=1111111111111111111111111111
          Frozen-core window.
          Direct CPHF calculation.
          Differentiating once with respect to electric field.
                with respect to dipole field.
          Differentiating once with respect to nuclear coordinates.
          Requested convergence is 1.0D-10 RMS, and 1.0D-09 maximum.
          NewPWx=F KeepS1=T KeepF1=T KeepIn=T MapXYZ=F SortEE=F KeepMc=T.
 Keep R1 ints in memory in canonical form, NReq=425201067.
 FoFCou: FMM=F IPFlag=           0 FMFlag=           0 FMFlg1=           0
         NFxFlg=           0 DoJE=F BraDBF=F KetDBF=F FulRan=T
         wScrn=  0.000000 ICntrl=       600 IOpCl=  0 I1Cent=           0 NGrid=           0
         NMat0=    1 NMatS0=  28920 NMatT0=    0 NMatD0=    1 NMtDS0=    0 NMtDT0=    0
 Symmetry not used in FoFCou.
 Two-electron integral symmetry not used.
          MDV=     524288000 using IRadAn=       5.
          Solving linear equations separately, MaxMat=       0.
          There are     1 degrees of freedom in the 1st order CPHF.  IDoFFX=0 NUNeed=     1.
 LinEq1:  Iter=  0 NonCon=     1 RMS=2.55D-03 Max=4.26D-02 NDo=     1
 AX will form     1 AO Fock derivatives at one time.
 LinEq1:  Iter=  1 NonCon=     1 RMS=6.89D-04 Max=1.12D-02 NDo=     1
 LinEq1:  Iter=  2 NonCon=     1 RMS=1.61D-04 Max=4.13D-03 NDo=     1
 LinEq1:  Iter=  3 NonCon=     1 RMS=4.42D-05 Max=5.12D-04 NDo=     1
 LinEq1:  Iter=  4 NonCon=     1 RMS=1.99D-05 Max=8.26D-04 NDo=     1
 LinEq1:  Iter=  5 NonCon=     1 RMS=4.81D-06 Max=8.80D-05 NDo=     1
 LinEq1:  Iter=  6 NonCon=     1 RMS=1.46D-06 Max=2.33D-05 NDo=     1
 LinEq1:  Iter=  7 NonCon=     1 RMS=4.00D-07 Max=4.14D-06 NDo=     1
 LinEq1:  Iter=  8 NonCon=     1 RMS=8.45D-08 Max=1.47D-06 NDo=     1
 LinEq1:  Iter=  9 NonCon=     1 RMS=2.22D-08 Max=5.48D-07 NDo=     1
 LinEq1:  Iter= 10 NonCon=     1 RMS=7.41D-09 Max=1.95D-07 NDo=     1
 LinEq1:  Iter= 11 NonCon=     1 RMS=2.36D-09 Max=7.30D-08 NDo=     1
 LinEq1:  Iter= 12 NonCon=     1 RMS=8.60D-10 Max=1.37D-08 NDo=     1
 LinEq1:  Iter= 13 NonCon=     1 RMS=2.39D-10 Max=3.42D-09 NDo=     1
 LinEq1:  Iter= 14 NonCon=     0 RMS=5.52D-11 Max=6.92D-10 NDo=     1
 Linear equations converged to 1.000D-10 1.000D-09 after    14 iterations.
 End of Minotr F.D. properties file   721 does not exist.
 End of Minotr F.D. properties file   722 does not exist.
 End of Minotr F.D. properties file   788 does not exist.
 Leave Link 1002 at Fri Sep 17 13:38:42 2021, MaxMem=   524288000 cpu:              38.7 elap:              38.7
 (Enter /opt/gaussian/g16_legacy/l601.exe)
 Copying SCF densities to generalized density rwf, IOpCl= 0 IROHF=0.

 **********************************************************************

            Population analysis using the SCF density.

 **********************************************************************

 Orbital symmetries:
       Occupied  (A) (A) (A) (A) (A) (A) (A) (A) (A) (A) (A) (A)
                 (A) (A) (A) (A) (A) (A) (A) (A) (A) (A) (A) (A)
                 (A) (A) (A) (A) (A) (A) (A) (A) (A) (A) (A) (A)
                 (A) (A) (A)
       Virtual   (A) (A) (A) (A) (A) (A) (A) (A) (A) (A) (A) (A)
                 (A) (A) (A) (A) (A) (A) (A) (A) (A) (A) (A) (A)
                 (A) (A) (A) (A) (A) (A) (A) (A) (A) (A) (A) (A)
                 (A) (A) (A) (A) (A) (A) (A) (A) (A) (A) (A) (A)
                 (A) (A) (A) (A) (A) (A) (A) (A) (A) (A) (A) (A)
                 (A) (A) (A) (A) (A) (A) (A) (A) (A) (A) (A) (A)
                 (A) (A) (A) (A) (A) (A) (A) (A) (A) (A) (A) (A)
                 (A) (A) (A) (A) (A) (A) (A) (A) (A) (A) (A) (A)
                 (A) (A) (A) (A) (A) (A) (A) (A) (A) (A) (A) (A)
                 (A) (A) (A) (A) (A) (A) (A) (A) (A) (A) (A) (A)
                 (A) (A) (A) (A) (A) (A) (A) (A) (A) (A) (A) (A)
                 (A) (A) (A) (A) (A) (A) (A) (A) (A) (A) (A) (A)
                 (A) (A) (A) (A) (A) (A) (A) (A) (A) (A) (A) (A)
                 (A) (A) (A) (A) (A) (A) (A) (A) (A) (A) (A) (A)
                 (A) (A) (A) (A) (A) (A) (A) (A) (A) (A) (A) (A)
                 (A) (A) (A) (A) (A) (A) (A) (A) (A) (A) (A) (A)
                 (A) (A) (A) (A) (A) (A) (A) (A) (A)
 The electronic state is 1-A.
 Alpha  occ. eigenvalues --  -11.23060 -11.22492 -11.21995 -11.21920 -11.21894
 Alpha  occ. eigenvalues --  -11.21650 -11.21538 -11.21500 -11.21456 -11.21436
 Alpha  occ. eigenvalues --   -1.10615  -1.08327  -1.01892  -0.98024  -0.93647
 Alpha  occ. eigenvalues --   -0.91775  -0.86737  -0.82690  -0.70608  -0.69413
 Alpha  occ. eigenvalues --   -0.64402  -0.61335  -0.60398  -0.59007  -0.58077
 Alpha  occ. eigenvalues --   -0.56878  -0.55468  -0.55041  -0.53553  -0.51979
 Alpha  occ. eigenvalues --   -0.51779  -0.51259  -0.50451  -0.49763  -0.47238
 Alpha  occ. eigenvalues --   -0.46643  -0.44234  -0.33253  -0.31611
 Alpha virt. eigenvalues --    0.18418   0.19607   0.22268   0.24508   0.24867
 Alpha virt. eigenvalues --    0.27279   0.28581   0.29021   0.30342   0.30570
 Alpha virt. eigenvalues --    0.31452   0.32294   0.32994   0.33605   0.33919
 Alpha virt. eigenvalues --    0.34861   0.36107   0.37175   0.38359   0.39994
 Alpha virt. eigenvalues --    0.40807   0.41939   0.42663   0.44320   0.45311
 Alpha virt. eigenvalues --    0.51884   0.54071   0.61042   0.62385   0.69420
 Alpha virt. eigenvalues --    0.71419   0.71713   0.74323   0.75991   0.76600
 Alpha virt. eigenvalues --    0.77889   0.78837   0.80150   0.80438   0.82525
 Alpha virt. eigenvalues --    0.82864   0.85807   0.89230   0.90311   0.92128
 Alpha virt. eigenvalues --    0.93067   0.94945   0.96557   0.97592   0.99410
 Alpha virt. eigenvalues --    0.99665   1.01113   1.02714   1.04773   1.06342
 Alpha virt. eigenvalues --    1.07246   1.08349   1.08464   1.10883   1.12200
 Alpha virt. eigenvalues --    1.13082   1.13493   1.14141   1.15109   1.15427
 Alpha virt. eigenvalues --    1.15973   1.16403   1.17990   1.18283   1.20092
 Alpha virt. eigenvalues --    1.20923   1.22025   1.22905   1.24887   1.26883
 Alpha virt. eigenvalues --    1.29777   1.39907   1.40850   1.44073   1.45166
 Alpha virt. eigenvalues --    1.46115   1.53923   1.55257   1.57486   1.59005
 Alpha virt. eigenvalues --    1.61318   1.62900   1.65439   1.68693   1.70719
 Alpha virt. eigenvalues --    1.74996   1.83307   1.90943   1.92633   1.95888
 Alpha virt. eigenvalues --    1.98116   2.01341   2.02515   2.04962   2.08419
 Alpha virt. eigenvalues --    2.09280   2.11239   2.11880   2.13547   2.13758
 Alpha virt. eigenvalues --    2.15744   2.17934   2.19180   2.23539   2.27676
 Alpha virt. eigenvalues --    2.27928   2.30154   2.32118   2.34933   2.35557
 Alpha virt. eigenvalues --    2.35639   2.35786   2.39414   2.39799   2.40226
 Alpha virt. eigenvalues --    2.41253   2.41850   2.42902   2.44984   2.45575
 Alpha virt. eigenvalues --    2.47188   2.49010   2.49668   2.49765   2.53201
 Alpha virt. eigenvalues --    2.56182   2.58402   2.60484   2.62608   2.64595
 Alpha virt. eigenvalues --    2.66043   2.67900   2.71566   2.72559   2.74075
 Alpha virt. eigenvalues --    2.76097   2.77697   2.80998   2.82554   2.84072
 Alpha virt. eigenvalues --    2.86958   2.90349   2.92350   2.93717   2.93880
 Alpha virt. eigenvalues --    2.97260   2.98945   3.00898   3.02347   3.04612
 Alpha virt. eigenvalues --    3.06566   3.07049   3.09529   3.11567   3.16242
 Alpha virt. eigenvalues --    3.17174   3.17506   3.19750   3.20510   3.20972
 Alpha virt. eigenvalues --    3.22292   3.25235   3.26471   3.27443   3.37022
 Alpha virt. eigenvalues --    3.39002   3.44376   3.45745   3.55485   3.57315
 Alpha virt. eigenvalues --    3.58496   3.60434   3.67983   3.73334   3.78353
 Alpha virt. eigenvalues --    3.78760   3.80291   3.81203   3.82238   3.82865
 Alpha virt. eigenvalues --    3.83548   3.85734   3.87948   3.89124   3.90860
 Alpha virt. eigenvalues --    3.96051   4.59176   4.62293   4.74495   4.82467
 Alpha virt. eigenvalues --    4.89198   4.92415   4.93232   5.07345   5.10305
 Alpha virt. eigenvalues --    5.16932
          Condensed to atoms (all electrons):
               1          2          3          4          5          6
     1  C    5.000727   0.412403   0.414397   0.339571  -0.058811  -0.000422
     2  H    0.412403   0.583769  -0.030312  -0.045125  -0.004632  -0.000305
     3  H    0.414397  -0.030312   0.576683  -0.040671   0.003304  -0.000036
     4  C    0.339571  -0.045125  -0.040671   4.957366   0.350739  -0.046054
     5  C   -0.058811  -0.004632   0.003304   0.350739   4.895144   0.399657
     6  H   -0.000422  -0.000305  -0.000036  -0.046054   0.399657   0.598072
     7  H    0.003651   0.000092  -0.000107  -0.041407   0.406592  -0.028119
     8  H   -0.003455   0.002509  -0.000014  -0.043212   0.397606  -0.035168
     9  C   -0.043506   0.001833  -0.002304   0.696619  -0.045824  -0.000962
    10  H    0.003080  -0.000112   0.000055  -0.036439  -0.006439   0.000130
    11  C   -0.007010   0.000131  -0.002041  -0.050649   0.003400  -0.000102
    12  H    0.000216   0.000029   0.000157  -0.001298  -0.000114  -0.000005
    13  H    0.000233  -0.000010  -0.000035   0.000511  -0.000102   0.000015
    14  H   -0.002039   0.000010  -0.001243  -0.000451   0.000090   0.000001
    15  C    0.000487   0.000129  -0.000011  -0.000018  -0.000017  -0.000029
    16  H    0.000071  -0.000066  -0.000000  -0.000002   0.000000  -0.000001
    17  H    0.000080   0.000148  -0.000011  -0.000063   0.000095   0.000222
    18  H   -0.000041   0.000012   0.000000   0.000001  -0.000000  -0.000000
    19  C   -0.002758   0.000933   0.000602  -0.000035   0.000007   0.000017
    20  C   -0.000105  -0.000032  -0.000001   0.000001  -0.000000  -0.000000
    21  H   -0.000002  -0.000002   0.000002   0.000000  -0.000000  -0.000000
    22  H    0.000021  -0.000005  -0.000001  -0.000000   0.000000   0.000000
    23  H   -0.000004   0.000001   0.000000   0.000000  -0.000000   0.000000
    24  C   -0.062593  -0.000487  -0.001372   0.006104  -0.000075  -0.000082
    25  H   -0.000349   0.000186   0.001131  -0.000118  -0.000002  -0.000000
    26  C    0.325374  -0.042899  -0.041390  -0.056901  -0.000804   0.000832
    27  H   -0.045273   0.004394  -0.002679  -0.001368   0.000304   0.000016
    28  H   -0.040027  -0.002357   0.004046  -0.002268  -0.000487  -0.000581
               7          8          9         10         11         12
     1  C    0.003651  -0.003455  -0.043506   0.003080  -0.007010   0.000216
     2  H    0.000092   0.002509   0.001833  -0.000112   0.000131   0.000029
     3  H   -0.000107  -0.000014  -0.002304   0.000055  -0.002041   0.000157
     4  C   -0.041407  -0.043212   0.696619  -0.036439  -0.050649  -0.001298
     5  C    0.406592   0.397606  -0.045824  -0.006439   0.003400  -0.000114
     6  H   -0.028119  -0.035168  -0.000962   0.000130  -0.000102  -0.000005
     7  H    0.570213  -0.027587  -0.002764   0.002174   0.000140  -0.000004
     8  H   -0.027587   0.593358  -0.000479   0.000245  -0.000113   0.000021
     9  C   -0.002764  -0.000479   4.940023   0.404575   0.338342  -0.044539
    10  H    0.002174   0.000245   0.404575   0.559830  -0.043628  -0.000244
    11  C    0.000140  -0.000113   0.338342  -0.043628   4.903490   0.400266
    12  H   -0.000004   0.000021  -0.044539  -0.000244   0.400266   0.585311
    13  H   -0.000008  -0.000004  -0.042716  -0.002623   0.402918  -0.033317
    14  H    0.000004  -0.000001  -0.041981   0.003342   0.408031  -0.027464
    15  C    0.000000  -0.000002  -0.000000  -0.000000  -0.000000   0.000000
    16  H   -0.000000   0.000000   0.000000  -0.000000   0.000000  -0.000000
    17  H   -0.000001   0.000005  -0.000001   0.000000  -0.000000  -0.000000
    18  H    0.000000   0.000000   0.000000   0.000000   0.000000   0.000000
    19  C   -0.000000  -0.000001  -0.000002   0.000000   0.000000  -0.000000
    20  C    0.000000   0.000000  -0.000000   0.000000   0.000000   0.000000
    21  H   -0.000000  -0.000000   0.000000   0.000000  -0.000000  -0.000000
    22  H   -0.000000  -0.000000   0.000000  -0.000000  -0.000000  -0.000000
    23  H    0.000000  -0.000000  -0.000000   0.000000  -0.000000   0.000000
    24  C    0.000002   0.000000  -0.000010   0.000002  -0.000022   0.000002
    25  H    0.000000   0.000000   0.000009  -0.000000  -0.000002  -0.000000
    26  C   -0.000094   0.000024  -0.003333  -0.000120   0.000493  -0.000045
    27  H   -0.000006   0.000006   0.000946  -0.000032   0.000106   0.000018
    28  H   -0.000024   0.000076   0.000498   0.000002  -0.000024  -0.000000
              13         14         15         16         17         18
     1  C    0.000233  -0.002039   0.000487   0.000071   0.000080  -0.000041
     2  H   -0.000010   0.000010   0.000129  -0.000066   0.000148   0.000012
     3  H   -0.000035  -0.001243  -0.000011  -0.000000  -0.000011   0.000000
     4  C    0.000511  -0.000451  -0.000018  -0.000002  -0.000063   0.000001
     5  C   -0.000102   0.000090  -0.000017   0.000000   0.000095  -0.000000
     6  H    0.000015   0.000001  -0.000029  -0.000001   0.000222  -0.000000
     7  H   -0.000008   0.000004   0.000000  -0.000000  -0.000001   0.000000
     8  H   -0.000004  -0.000001  -0.000002   0.000000   0.000005   0.000000
     9  C   -0.042716  -0.041981  -0.000000   0.000000  -0.000001   0.000000
    10  H   -0.002623   0.003342  -0.000000  -0.000000   0.000000   0.000000
    11  C    0.402918   0.408031  -0.000000   0.000000  -0.000000   0.000000
    12  H   -0.033317  -0.027464   0.000000  -0.000000  -0.000000   0.000000
    13  H    0.585828  -0.029451  -0.000000   0.000000   0.000000  -0.000000
    14  H   -0.029451   0.575184   0.000000  -0.000000   0.000000   0.000000
    15  C   -0.000000   0.000000   4.906865   0.402432   0.405947   0.398573
    16  H    0.000000  -0.000000   0.402432   0.585592  -0.029640  -0.033094
    17  H    0.000000   0.000000   0.405947  -0.029640   0.570721  -0.026875
    18  H   -0.000000   0.000000   0.398573  -0.033094  -0.026875   0.583071
    19  C    0.000000   0.000001   0.348914  -0.043848  -0.036967  -0.043923
    20  C   -0.000000  -0.000000  -0.065373  -0.003426   0.003707  -0.001680
    21  H    0.000000   0.000000   0.003697   0.000012  -0.000109  -0.000080
    22  H    0.000000  -0.000000  -0.002145   0.002839  -0.000072  -0.000367
    23  H   -0.000000   0.000000  -0.001091  -0.000508  -0.000024   0.002542
    24  C   -0.000002   0.000034  -0.043609   0.000408  -0.002889  -0.000743
    25  H   -0.000000   0.000035   0.003360  -0.000112   0.000053  -0.000124
    26  C    0.000079  -0.000174  -0.007185   0.000276  -0.002349   0.000191
    27  H   -0.000059   0.000114   0.000145  -0.000012   0.000041   0.000033
    28  H    0.000000  -0.000005  -0.001879  -0.000035  -0.001473   0.000040
              19         20         21         22         23         24
     1  C   -0.002758  -0.000105  -0.000002   0.000021  -0.000004  -0.062593
     2  H    0.000933  -0.000032  -0.000002  -0.000005   0.000001  -0.000487
     3  H    0.000602  -0.000001   0.000002  -0.000001   0.000000  -0.001372
     4  C   -0.000035   0.000001   0.000000  -0.000000   0.000000   0.006104
     5  C    0.000007  -0.000000  -0.000000   0.000000  -0.000000  -0.000075
     6  H    0.000017  -0.000000  -0.000000   0.000000   0.000000  -0.000082
     7  H   -0.000000   0.000000  -0.000000  -0.000000   0.000000   0.000002
     8  H   -0.000001   0.000000  -0.000000  -0.000000  -0.000000   0.000000
     9  C   -0.000002  -0.000000   0.000000   0.000000  -0.000000  -0.000010
    10  H    0.000000   0.000000   0.000000  -0.000000   0.000000   0.000002
    11  C    0.000000   0.000000  -0.000000  -0.000000  -0.000000  -0.000022
    12  H   -0.000000   0.000000  -0.000000  -0.000000   0.000000   0.000002
    13  H    0.000000  -0.000000   0.000000   0.000000  -0.000000  -0.000002
    14  H    0.000001  -0.000000   0.000000  -0.000000   0.000000   0.000034
    15  C    0.348914  -0.065373   0.003697  -0.002145  -0.001091  -0.043609
    16  H   -0.043848  -0.003426   0.000012   0.002839  -0.000508   0.000408
    17  H   -0.036967   0.003707  -0.000109  -0.000072  -0.000024  -0.002889
    18  H   -0.043923  -0.001680  -0.000080  -0.000367   0.002542  -0.000743
    19  C    4.920201   0.351816  -0.040403  -0.044197  -0.045807   0.695490
    20  C    0.351816   4.903451   0.405371   0.396998   0.399274  -0.044522
    21  H   -0.040403   0.405371   0.568093  -0.027356  -0.027577  -0.002346
    22  H   -0.044197   0.396998  -0.027356   0.594215  -0.034891  -0.000622
    23  H   -0.045807   0.399274  -0.027577  -0.034891   0.593105  -0.001111
    24  C    0.695490  -0.044522  -0.002346  -0.000622  -0.001111   4.962330
    25  H   -0.035974  -0.006706   0.002203   0.000223   0.000153   0.402998
    26  C   -0.048864   0.003141   0.000141  -0.000086  -0.000123   0.341669
    27  H    0.000972  -0.000098  -0.000011  -0.000002   0.000012  -0.044018
    28  H    0.000558   0.000062   0.000006  -0.000003   0.000004  -0.043146
              25         26         27         28
     1  C   -0.000349   0.325374  -0.045273  -0.040027
     2  H    0.000186  -0.042899   0.004394  -0.002357
     3  H    0.001131  -0.041390  -0.002679   0.004046
     4  C   -0.000118  -0.056901  -0.001368  -0.002268
     5  C   -0.000002  -0.000804   0.000304  -0.000487
     6  H   -0.000000   0.000832   0.000016  -0.000581
     7  H    0.000000  -0.000094  -0.000006  -0.000024
     8  H    0.000000   0.000024   0.000006   0.000076
     9  C    0.000009  -0.003333   0.000946   0.000498
    10  H   -0.000000  -0.000120  -0.000032   0.000002
    11  C   -0.000002   0.000493   0.000106  -0.000024
    12  H   -0.000000  -0.000045   0.000018  -0.000000
    13  H   -0.000000   0.000079  -0.000059   0.000000
    14  H    0.000035  -0.000174   0.000114  -0.000005
    15  C    0.003360  -0.007185   0.000145  -0.001879
    16  H   -0.000112   0.000276  -0.000012  -0.000035
    17  H    0.000053  -0.002349   0.000041  -0.001473
    18  H   -0.000124   0.000191   0.000033   0.000040
    19  C   -0.035974  -0.048864   0.000972   0.000558
    20  C   -0.006706   0.003141  -0.000098   0.000062
    21  H    0.002203   0.000141  -0.000011   0.000006
    22  H    0.000223  -0.000086  -0.000002  -0.000003
    23  H    0.000153  -0.000123   0.000012   0.000004
    24  C    0.402998   0.341669  -0.044018  -0.043146
    25  H    0.558278  -0.041945  -0.003531   0.003304
    26  C   -0.041945   4.978497   0.415019   0.414994
    27  H   -0.003531   0.415019   0.581191  -0.029788
    28  H    0.003304   0.414994  -0.029788   0.579629
 Mulliken charges:
               1
     1  C   -0.233916
     2  H    0.119766
     3  H    0.121852
     4  C    0.015166
     5  C   -0.339630
     6  H    0.112904
     7  H    0.117253
     8  H    0.116184
     9  C   -0.154421
    10  H    0.116199
    11  C   -0.353724
    12  H    0.121010
    13  H    0.118743
    14  H    0.115961
    15  C   -0.349190
    16  H    0.119115
    17  H    0.119455
    18  H    0.122462
    19  C    0.023268
    20  C   -0.341879
    21  H    0.118361
    22  H    0.115453
    23  H    0.116046
    24  C   -0.161388
    25  H    0.116931
    26  C   -0.234419
    27  H    0.123561
    28  H    0.118879
 Sum of Mulliken charges =  -0.00000
 Mulliken charges with hydrogens summed into heavy atoms:
               1
     1  C    0.007702
     4  C    0.015166
     5  C    0.006711
     9  C   -0.038222
    11  C    0.001990
    15  C    0.011841
    19  C    0.023268
    20  C    0.007981
    24  C   -0.044458
    26  C    0.008021
 Electronic spatial extent (au):  <R**2>=           2544.9868
 Charge=             -0.0000 electrons
 Dipole moment (field-independent basis, Debye):
    X=             -0.3494    Y=              0.1467    Z=              0.0261  Tot=              0.3798
 Quadrupole moment (field-independent basis, Debye-Ang):
   XX=            -63.8832   YY=            -63.9192   ZZ=            -67.2165
   XY=             -0.9680   XZ=             -0.9087   YZ=             -0.2411
 Traceless Quadrupole moment (field-independent basis, Debye-Ang):
   XX=              1.1231   YY=              1.0871   ZZ=             -2.2102
   XY=             -0.9680   XZ=             -0.9087   YZ=             -0.2411
 Octapole moment (field-independent basis, Debye-Ang**2):
  XXX=             -0.9309  YYY=             -2.8092  ZZZ=              0.8875  XYY=              0.2805
  XXY=              1.7973  XXZ=             -2.7163  XZZ=             -1.8077  YZZ=              1.3748
  YYZ=              0.5284  XYZ=              0.3801
 Hexadecapole moment (field-independent basis, Debye-Ang**3):
 XXXX=          -2708.1217 YYYY=           -641.3404 ZZZZ=           -161.4645 XXXY=             -7.6680
 XXXZ=            -11.8775 YYYX=              8.1782 YYYZ=             -1.4953 ZZZX=             -2.8130
 ZZZY=              1.9622 XXYY=           -565.0437 XXZZ=           -492.0538 YYZZ=           -130.8317
 XXYZ=             -3.0969 YYXZ=             -1.7787 ZZXY=             -8.1529
 N-N= 5.132779926611D+02 E-N=-1.931190110492D+03  KE= 3.886242966038D+02
 No NMR shielding tensors so no spin-rotation constants.
 Leave Link  601 at Fri Sep 17 13:38:42 2021, MaxMem=   524288000 cpu:               0.4 elap:               0.4
 (Enter /opt/gaussian/g16_legacy/l701.exe)
 ... and contract with generalized density number  2.
 Compute integral first derivatives.
 Leave Link  701 at Fri Sep 17 13:38:43 2021, MaxMem=   524288000 cpu:               0.4 elap:               0.4
 (Enter /opt/gaussian/g16_legacy/l702.exe)
 L702 exits ... SP integral derivatives will be done elsewhere.
 Leave Link  702 at Fri Sep 17 13:38:43 2021, MaxMem=   524288000 cpu:               0.1 elap:               0.1
 (Enter /opt/gaussian/g16_legacy/l703.exe)
 Integral derivatives from FoFJK, PRISM(SPDF).
 Compute integral first derivatives, UseDBF=F ICtDFT=           0.
 Calling FoFJK, ICntrl=  10002127 FMM=F ISym2X=0 I1Cent= 0 IOpClX= 0 NMat=1 NMatS=1 NMatT=0.
 FoFJK:  IHMeth= 1 ICntrl=10002127 DoSepK=F KAlg= 0 I1Cent=           0 FoldK=F
 IRaf=         0 NMat=       1 IRICut=       1 DoRegI=T DoRafI=F ISym2E= 0 IDoP0=0 IntGTp=1.
 FoFCou: FMM=F IPFlag=           0 FMFlag=      100000 FMFlg1=         800
         NFxFlg=           0 DoJE=F BraDBF=F KetDBF=F FulRan=T
         wScrn=  0.000000 ICntrl=  10002127 IOpCl=  0 I1Cent=           0 NGrid=           0
         NMat0=    1 NMatS0=      1 NMatT0=    0 NMatD0=    1 NMtDS0=    0 NMtDT0=    0
 Symmetry not used in FoFCou.
 Leave Link  703 at Fri Sep 17 13:39:17 2021, MaxMem=   524288000 cpu:              34.2 elap:              34.2
 (Enter /opt/gaussian/g16_legacy/l716.exe)
 Dipole        =-1.00163096D-01 3.49708625D-02 3.59786133D-03
 ***** Axes restored to original set *****
 -------------------------------------------------------------------
 Center     Atomic                   Forces (Hartrees/Bohr)
 Number     Number              X              Y              Z
 -------------------------------------------------------------------
      1        6          -0.009005517    0.000242743   -0.000994268
      2        1           0.001206213    0.001571351    0.003967937
      3        1           0.001697434    0.002571991    0.002478919
      4        6          -0.004221519    0.000241531   -0.004514927
      5        6          -0.002237580    0.001832375    0.000793722
      6        1          -0.000431236   -0.000417154   -0.003263915
      7        1           0.002237825   -0.003415576    0.000799469
      8        1           0.002181854    0.001255316    0.002233158
      9        6           0.003191038    0.001655269    0.000993972
     10        1           0.003225836    0.000140373   -0.001427875
     11        6           0.000456183   -0.002374801    0.001349110
     12        1           0.000695129   -0.000875445    0.003217126
     13        1          -0.000951481   -0.002172966   -0.002583537
     14        1          -0.001774078    0.002345283   -0.001710415
     15        6          -0.002936919    0.003637926   -0.000229652
     16        1           0.001426898    0.000014987    0.003432463
     17        1           0.001278284   -0.002736904    0.001792714
     18        1          -0.000086211   -0.000403705   -0.003091862
     19        6          -0.003086078   -0.004583106   -0.000484931
     20        6          -0.001721185   -0.002814245    0.000975354
     21        1          -0.000027639    0.004222241   -0.001138201
     22        1           0.002419358    0.000779722    0.002415286
     23        1          -0.000305514   -0.000817171   -0.003248415
     24        6           0.000267943    0.003267969    0.003886227
     25        1           0.002550376    0.000787941   -0.002082388
     26        6           0.007048461   -0.002238597    0.002259611
     27        1          -0.002023341    0.000528486   -0.003730062
     28        1          -0.001074534   -0.002245832   -0.002094619
 -------------------------------------------------------------------
 Cartesian Forces:  Max     0.009005517 RMS     0.002542490
 Leave Link  716 at Fri Sep 17 13:39:17 2021, MaxMem=   524288000 cpu:               0.1 elap:               0.1
 (Enter /opt/gaussian/g16_legacy/l103.exe)

 GradGradGradGradGradGradGradGradGradGradGradGradGradGradGradGradGradGrad
 Berny optimization.
 FormGI is forming the generalized inverse of G from B-inverse, IUseBI=4.
 GSVD:  received Info=                   1 from GESDD.
 Internal  Forces:  Max     0.004134293 RMS     0.001895430
 Search for a local minimum.
 Step number   1 out of a maximum of  138
 All quantities printed in internal units (Hartrees-Bohrs-Radians)
 RMS Force = .18954D-02 SwitMx=.10000D-02 MixMth= 1
 Mixed Optimization -- RFO/linear search
 Second derivative matrix not updated -- first step.
 ITU=  0
     Eigenvalues ---    0.00342   0.00571   0.00667   0.00680   0.00693
     Eigenvalues ---    0.00716   0.00819   0.01219   0.01287   0.01569
     Eigenvalues ---    0.01642   0.02779   0.02784   0.04015   0.04133
     Eigenvalues ---    0.05351   0.05403   0.06981   0.07038   0.07087
     Eigenvalues ---    0.07092   0.07265   0.07300   0.07348   0.07506
     Eigenvalues ---    0.09278   0.09364   0.12769   0.12845   0.15999
     Eigenvalues ---    0.15999   0.16000   0.16000   0.16000   0.16000
     Eigenvalues ---    0.16000   0.16000   0.16000   0.16000   0.16000
     Eigenvalues ---    0.16000   0.16000   0.16000   0.21860   0.21867
     Eigenvalues ---    0.22000   0.22000   0.24993   0.24996   0.24998
     Eigenvalues ---    0.24999   0.29236   0.30876   0.31605   0.31703
     Eigenvalues ---    0.31806   0.31983   0.32805   0.33862   0.33930
     Eigenvalues ---    0.34069   0.34182   0.34219   0.34224   0.34248
     Eigenvalues ---    0.34251   0.34256   0.34257   0.34269   0.34290
     Eigenvalues ---    0.34297   0.34335   0.34537   0.34563   0.34785
     Eigenvalues ---    0.34851   0.55488   0.55575
 RFO step:  Lambda=-2.87151987D-03 EMin= 3.42142638D-03
 Linear search not attempted -- first point.
 Iteration  1 RMS(Cart)=  0.04040370 RMS(Int)=  0.00070775
 Iteration  2 RMS(Cart)=  0.00101730 RMS(Int)=  0.00015660
 Iteration  3 RMS(Cart)=  0.00000056 RMS(Int)=  0.00015660
 ITry= 1 IFail=0 DXMaxC= 1.61D-01 DCOld= 1.00D+10 DXMaxT= 3.00D-01 DXLimC= 3.00D+00 Rises=F
 Variable       Old X    -DE/DX   Delta X   Delta X   Delta X     New X
                                 (Linear)    (Quad)   (Total)
    R1        2.07563  -0.00311   0.00000  -0.00910  -0.00910   2.06653
    R2        2.07213  -0.00291   0.00000  -0.00846  -0.00846   2.06368
    R3        2.86251  -0.00346   0.00000  -0.01110  -0.01110   2.85141
    R4        2.89513   0.00159   0.00000   0.00539   0.00539   2.90052
    R5        2.84872  -0.00063   0.00000  -0.00197  -0.00197   2.84676
    R6        2.54701  -0.00395   0.00000  -0.00708  -0.00708   2.53992
    R7        2.06832  -0.00169   0.00000  -0.00489  -0.00489   2.06343
    R8        2.06962  -0.00376   0.00000  -0.01089  -0.01089   2.05873
    R9        2.06909  -0.00214   0.00000  -0.00620  -0.00620   2.06290
   R10        2.05918  -0.00216   0.00000  -0.00615  -0.00615   2.05303
   R11        2.82696   0.00309   0.00000   0.00935   0.00935   2.83631
   R12        2.06769  -0.00160   0.00000  -0.00461  -0.00461   2.06308
   R13        2.06900  -0.00269   0.00000  -0.00778  -0.00778   2.06122
   R14        2.06391  -0.00299   0.00000  -0.00859  -0.00859   2.05532
   R15        2.07023  -0.00276   0.00000  -0.00800  -0.00800   2.06223
   R16        2.06433  -0.00295   0.00000  -0.00846  -0.00846   2.05588
   R17        2.06879  -0.00186   0.00000  -0.00539  -0.00539   2.06340
   R18        2.84175  -0.00044   0.00000  -0.00135  -0.00135   2.84040
   R19        2.84690  -0.00076   0.00000  -0.00237  -0.00237   2.84452
   R20        2.54625  -0.00323   0.00000  -0.00579  -0.00579   2.54046
   R21        2.06954  -0.00398   0.00000  -0.01153  -0.01153   2.05801
   R22        2.06898  -0.00195   0.00000  -0.00564  -0.00564   2.06334
   R23        2.06913  -0.00199   0.00000  -0.00576  -0.00576   2.06337
   R24        2.06025  -0.00207   0.00000  -0.00592  -0.00592   2.05433
   R25        2.84501  -0.00138   0.00000  -0.00432  -0.00432   2.84069
   R26        2.07448  -0.00278   0.00000  -0.00812  -0.00812   2.06637
   R27        2.06844  -0.00240   0.00000  -0.00695  -0.00695   2.06149
    A1        1.83014   0.00205   0.00000   0.02204   0.02187   1.85201
    A2        1.90130  -0.00008   0.00000   0.00128   0.00128   1.90258
    A3        1.91820  -0.00275   0.00000  -0.02412  -0.02414   1.89405
    A4        1.93124  -0.00018   0.00000   0.00558   0.00560   1.93685
    A5        1.91974  -0.00201   0.00000  -0.01371  -0.01375   1.90599
    A6        1.95879   0.00287   0.00000   0.00942   0.00946   1.96825
    A7        2.00714   0.00173   0.00000   0.00715   0.00660   2.01374
    A8        2.17228  -0.00413   0.00000  -0.01597  -0.01648   2.15579
    A9        2.10356   0.00242   0.00000   0.00998   0.00943   2.11299
   A10        1.92848   0.00228   0.00000   0.01216   0.01219   1.94066
   A11        1.95929  -0.00267   0.00000  -0.01341  -0.01337   1.94592
   A12        1.92471   0.00166   0.00000   0.00912   0.00914   1.93385
   A13        1.87693   0.00055   0.00000   0.00554   0.00558   1.88251
   A14        1.89472  -0.00306   0.00000  -0.02461  -0.02460   1.87012
   A15        1.87753   0.00112   0.00000   0.01038   0.01041   1.88794
   A16        2.06935  -0.00197   0.00000  -0.01350  -0.01352   2.05583
   A17        2.22577  -0.00180   0.00000  -0.00805  -0.00807   2.21771
   A18        1.98794   0.00377   0.00000   0.02172   0.02170   2.00964
   A19        1.91729   0.00386   0.00000   0.02274   0.02271   1.94000
   A20        1.91003   0.00237   0.00000   0.01555   0.01550   1.92553
   A21        1.98088  -0.00285   0.00000  -0.01752  -0.01744   1.96344
   A22        1.88707  -0.00306   0.00000  -0.01870  -0.01887   1.86821
   A23        1.89313  -0.00096   0.00000  -0.00762  -0.00754   1.88559
   A24        1.87283   0.00045   0.00000   0.00446   0.00452   1.87736
   A25        1.86365   0.00193   0.00000   0.01649   0.01650   1.88015
   A26        1.89059  -0.00237   0.00000  -0.02144  -0.02142   1.86917
   A27        1.92081   0.00001   0.00000  -0.00086  -0.00084   1.91997
   A28        1.88481   0.00022   0.00000   0.00326   0.00328   1.88810
   A29        1.97936  -0.00212   0.00000  -0.00962  -0.00960   1.96976
   A30        1.92172   0.00225   0.00000   0.01138   0.01140   1.93312
   A31        1.99475   0.00146   0.00000   0.00581   0.00579   2.00054
   A32        2.18278  -0.00334   0.00000  -0.01317  -0.01319   2.16958
   A33        2.10561   0.00188   0.00000   0.00747   0.00745   2.11306
   A34        1.96061  -0.00277   0.00000  -0.01387  -0.01383   1.94678
   A35        1.92501   0.00220   0.00000   0.01234   0.01237   1.93738
   A36        1.92348   0.00175   0.00000   0.00878   0.00880   1.93228
   A37        1.87912   0.00092   0.00000   0.00940   0.00943   1.88855
   A38        1.87869   0.00092   0.00000   0.00799   0.00802   1.88672
   A39        1.89492  -0.00314   0.00000  -0.02547  -0.02547   1.86946
   A40        2.06729  -0.00179   0.00000  -0.01212  -0.01252   2.05477
   A41        2.22783  -0.00178   0.00000  -0.00779  -0.00820   2.21963
   A42        1.98793   0.00358   0.00000   0.02074   0.02032   2.00824
   A43        1.94439   0.00332   0.00000   0.01376   0.01381   1.95820
   A44        1.91639  -0.00338   0.00000  -0.02320  -0.02339   1.89299
   A45        1.93098  -0.00168   0.00000  -0.01704  -0.01712   1.91386
   A46        1.88205   0.00136   0.00000   0.02220   0.02232   1.90436
   A47        1.94474  -0.00129   0.00000  -0.00732  -0.00726   1.93749
   A48        1.84175   0.00156   0.00000   0.01193   0.01167   1.85342
    D1       -0.64493   0.00074   0.00000  -0.02465  -0.02442  -0.66935
    D2        2.47474   0.00170   0.00000   0.03652   0.03634   2.51108
    D3       -2.64813  -0.00158   0.00000  -0.05497  -0.05478  -2.70291
    D4        0.47154  -0.00062   0.00000   0.00619   0.00598   0.47752
    D5        1.48336  -0.00091   0.00000  -0.04807  -0.04788   1.43548
    D6       -1.68015   0.00005   0.00000   0.01310   0.01288  -1.66727
    D7       -1.04077   0.00078   0.00000   0.01208   0.01199  -1.02878
    D8       -3.12452  -0.00082   0.00000  -0.00920  -0.00910  -3.13362
    D9        1.13275   0.00028   0.00000   0.00006  -0.00006   1.13269
   D10        0.96564   0.00054   0.00000   0.01713   0.01713   0.98278
   D11       -1.11810  -0.00106   0.00000  -0.00414  -0.00396  -1.12206
   D12        3.13917   0.00005   0.00000   0.00512   0.00508  -3.13894
   D13        3.12378   0.00088   0.00000   0.02098   0.02092  -3.13849
   D14        1.04004  -0.00072   0.00000  -0.00030  -0.00017   1.03986
   D15       -0.98588   0.00038   0.00000   0.00896   0.00886  -0.97702
[...]
                 (A) (A) (A) (A) (A) (A) (A) (A) (A) (A) (A) (A)
                 (A) (A) (A) (A) (A) (A) (A) (A) (A) (A) (A) (A)
                 (A) (A) (A) (A) (A) (A) (A) (A) (A) (A) (A) (A)
                 (A) (A) (A) (A) (A) (A) (A) (A) (A) (A) (A) (A)
                 (A) (A) (A) (A) (A) (A) (A) (A) (A) (A) (A) (A)
                 (A) (A) (A) (A) (A) (A) (A) (A) (A) (A) (A) (A)
                 (A) (A) (A) (A) (A) (A) (A) (A) (A) (A) (A) (A)
                 (A) (A) (A) (A) (A) (A) (A) (A) (A) (A) (A) (A)
                 (A) (A) (A) (A) (A) (A) (A) (A) (A) (A) (A) (A)
                 (A) (A) (A) (A) (A) (A) (A) (A) (A) (A) (A) (A)
                 (A) (A) (A) (A) (A) (A) (A) (A) (A) (A) (A) (A)
                 (A) (A) (A) (A) (A) (A) (A) (A) (A) (A) (A) (A)
                 (A) (A) (A) (A) (A) (A) (A) (A) (A) (A) (A) (A)
                 (A) (A) (A) (A) (A) (A) (A) (A) (A)
 The electronic state is 1-A.
 Alpha  occ. eigenvalues --  -11.23028 -11.22456 -11.21863 -11.21726 -11.21721
 Alpha  occ. eigenvalues --  -11.21541 -11.21497 -11.21449 -11.21393 -11.21358
 Alpha  occ. eigenvalues --   -1.10803  -1.08495  -1.01828  -0.98138  -0.93839
 Alpha  occ. eigenvalues --   -0.91936  -0.86954  -0.82861  -0.70567  -0.69489
 Alpha  occ. eigenvalues --   -0.64754  -0.61539  -0.60720  -0.58828  -0.58414
 Alpha  occ. eigenvalues --   -0.56814  -0.55405  -0.54979  -0.53298  -0.52217
 Alpha  occ. eigenvalues --   -0.51714  -0.51214  -0.50653  -0.50166  -0.47383
 Alpha  occ. eigenvalues --   -0.46917  -0.44458  -0.33328  -0.31563
 Alpha virt. eigenvalues --    0.18100   0.19932   0.22053   0.24536   0.24955
 Alpha virt. eigenvalues --    0.27424   0.28601   0.28877   0.30353   0.30694
 Alpha virt. eigenvalues --    0.31966   0.32601   0.32969   0.33726   0.34466
 Alpha virt. eigenvalues --    0.35524   0.36421   0.37370   0.38662   0.39972
 Alpha virt. eigenvalues --    0.40998   0.42095   0.42777   0.44262   0.45477
 Alpha virt. eigenvalues --    0.51938   0.54227   0.61292   0.62632   0.69521
 Alpha virt. eigenvalues --    0.71676   0.71855   0.74127   0.75627   0.76300
 Alpha virt. eigenvalues --    0.77310   0.78587   0.80192   0.80428   0.82510
 Alpha virt. eigenvalues --    0.83060   0.85963   0.89706   0.90634   0.91906
 Alpha virt. eigenvalues --    0.92727   0.94246   0.96733   0.97890   0.99038
 Alpha virt. eigenvalues --    0.99663   1.01316   1.02330   1.04636   1.06421
 Alpha virt. eigenvalues --    1.06946   1.08561   1.08610   1.11036   1.12563
 Alpha virt. eigenvalues --    1.13528   1.14242   1.14315   1.15516   1.15561
 Alpha virt. eigenvalues --    1.15995   1.16443   1.18511   1.18881   1.20423
 Alpha virt. eigenvalues --    1.21361   1.22874   1.23837   1.26678   1.27279
 Alpha virt. eigenvalues --    1.29587   1.40505   1.41229   1.45131   1.46302
 Alpha virt. eigenvalues --    1.47303   1.54539   1.56916   1.57903   1.58162
 Alpha virt. eigenvalues --    1.61580   1.62900   1.65166   1.67986   1.70099
 Alpha virt. eigenvalues --    1.73688   1.82808   1.91105   1.92024   1.96649
 Alpha virt. eigenvalues --    1.98629   2.01394   2.02264   2.04662   2.08570
 Alpha virt. eigenvalues --    2.09659   2.11023   2.11867   2.13286   2.14333
 Alpha virt. eigenvalues --    2.15615   2.17830   2.19386   2.23464   2.28302
 Alpha virt. eigenvalues --    2.29342   2.30634   2.33018   2.35331   2.35655
 Alpha virt. eigenvalues --    2.35947   2.36091   2.39306   2.40246   2.40800
 Alpha virt. eigenvalues --    2.42218   2.43338   2.43738   2.45452   2.46063
 Alpha virt. eigenvalues --    2.47468   2.49490   2.50160   2.50478   2.53353
 Alpha virt. eigenvalues --    2.56171   2.59443   2.61268   2.62977   2.65059
 Alpha virt. eigenvalues --    2.67062   2.68311   2.71449   2.72617   2.74255
 Alpha virt. eigenvalues --    2.76086   2.77474   2.80595   2.82947   2.83712
 Alpha virt. eigenvalues --    2.86556   2.90534   2.92645   2.94406   2.94575
 Alpha virt. eigenvalues --    2.97681   2.98672   3.01242   3.02716   3.05048
 Alpha virt. eigenvalues --    3.06983   3.08131   3.09712   3.12652   3.17075
 Alpha virt. eigenvalues --    3.17580   3.18813   3.20184   3.20611   3.22303
 Alpha virt. eigenvalues --    3.23445   3.25849   3.26685   3.27777   3.38376
 Alpha virt. eigenvalues --    3.40097   3.45764   3.46979   3.56086   3.58279
 Alpha virt. eigenvalues --    3.59222   3.61997   3.68641   3.74872   3.78914
 Alpha virt. eigenvalues --    3.79698   3.81279   3.82681   3.83341   3.84006
 Alpha virt. eigenvalues --    3.84104   3.86511   3.88184   3.89137   3.91421
 Alpha virt. eigenvalues --    3.97579   4.59401   4.62757   4.74521   4.82179
 Alpha virt. eigenvalues --    4.89167   4.92294   4.93230   5.07407   5.10903
 Alpha virt. eigenvalues --    5.17835
          Condensed to atoms (all electrons):
               1          2          3          4          5          6
     1  C    5.003997   0.412745   0.413411   0.339222  -0.057161  -0.000045
     2  H    0.412745   0.584867  -0.028359  -0.045647  -0.004621  -0.000557
     3  H    0.413411  -0.028359   0.576310  -0.039654   0.003215  -0.000012
     4  C    0.339222  -0.045647  -0.039654   4.951262   0.352880  -0.045807
     5  C   -0.057161  -0.004621   0.003215   0.352880   4.891657   0.400489
     6  H   -0.000045  -0.000557  -0.000012  -0.045807   0.400489   0.599593
     7  H    0.003819   0.000114  -0.000111  -0.042642   0.407271  -0.027516
     8  H   -0.003571   0.002410  -0.000037  -0.041600   0.397676  -0.037732
     9  C   -0.046576   0.002347  -0.001941   0.696859  -0.046080  -0.000883
    10  H    0.003280  -0.000115   0.000029  -0.037937  -0.006573   0.000143
    11  C   -0.007739   0.000152  -0.002699  -0.049997   0.003357  -0.000102
    12  H    0.000167   0.000018   0.000160  -0.000541  -0.000105  -0.000004
    13  H    0.000295  -0.000013  -0.000067  -0.000357  -0.000097   0.000016
    14  H   -0.002166   0.000038  -0.001508  -0.000577   0.000102  -0.000002
    15  C    0.000549   0.000191  -0.000016  -0.000019  -0.000025  -0.000043
    16  H    0.000120  -0.000099  -0.000001  -0.000004   0.000001  -0.000001
    17  H   -0.000058   0.000094  -0.000011  -0.000061   0.000096   0.000361
    18  H   -0.000041   0.000017   0.000000   0.000001  -0.000000  -0.000000
    19  C   -0.004098   0.001256   0.000622  -0.000004   0.000007   0.000021
    20  C   -0.000102  -0.000045  -0.000001   0.000002  -0.000000  -0.000000
    21  H   -0.000003  -0.000002   0.000002   0.000000  -0.000000  -0.000000
    22  H    0.000024  -0.000008  -0.000001  -0.000000   0.000000   0.000000
    23  H   -0.000005   0.000002   0.000000   0.000000  -0.000000   0.000000
    24  C   -0.062090   0.000057  -0.001230   0.006210  -0.000074  -0.000104
    25  H   -0.000091   0.000171   0.001049  -0.000105  -0.000002  -0.000000
    26  C    0.331129  -0.045729  -0.042384  -0.055684  -0.001011   0.000669
    27  H   -0.046716   0.004692  -0.002896  -0.001441   0.000280  -0.000003
    28  H   -0.042601  -0.002340   0.004316  -0.002245  -0.000436  -0.000466
               7          8          9         10         11         12
     1  C    0.003819  -0.003571  -0.046576   0.003280  -0.007739   0.000167
     2  H    0.000114   0.002410   0.002347  -0.000115   0.000152   0.000018
     3  H   -0.000111  -0.000037  -0.001941   0.000029  -0.002699   0.000160
     4  C   -0.042642  -0.041600   0.696859  -0.037937  -0.049997  -0.000541
     5  C    0.407271   0.397676  -0.046080  -0.006573   0.003357  -0.000105
     6  H   -0.027516  -0.037732  -0.000883   0.000143  -0.000102  -0.000004
     7  H    0.568320  -0.026708  -0.002982   0.002347   0.000133  -0.000006
     8  H   -0.026708   0.591603  -0.000465   0.000218  -0.000104   0.000017
     9  C   -0.002982  -0.000465   4.938271   0.404337   0.340912  -0.041774
    10  H    0.002347   0.000218   0.404337   0.559262  -0.041317  -0.001163
    11  C    0.000133  -0.000104   0.340912  -0.041317   4.898015   0.401438
    12  H   -0.000006   0.000017  -0.041774  -0.001163   0.401438   0.584890
    13  H   -0.000005  -0.000004  -0.041711  -0.001238   0.401889  -0.035520
    14  H    0.000005   0.000001  -0.043875   0.003330   0.409145  -0.027817
    15  C    0.000000  -0.000001  -0.000000  -0.000000  -0.000000   0.000000
    16  H   -0.000000   0.000000   0.000000  -0.000000   0.000000  -0.000000
    17  H   -0.000001  -0.000000  -0.000001   0.000000  -0.000000  -0.000000
    18  H    0.000000   0.000000   0.000000   0.000000   0.000000   0.000000
    19  C   -0.000000  -0.000001  -0.000003   0.000000   0.000000  -0.000000
    20  C    0.000000   0.000000  -0.000000   0.000000   0.000000   0.000000
    21  H   -0.000000  -0.000000  -0.000000   0.000000  -0.000000  -0.000000
    22  H   -0.000000  -0.000000   0.000000  -0.000000  -0.000000  -0.000000
    23  H    0.000000   0.000000  -0.000000   0.000000  -0.000000   0.000000
    24  C    0.000002   0.000003   0.000036   0.000002  -0.000027   0.000002
    25  H    0.000000   0.000000   0.000007  -0.000000  -0.000002  -0.000000
    26  C   -0.000108   0.000075  -0.004455  -0.000120   0.000509  -0.000037
    27  H   -0.000004   0.000005   0.001236  -0.000038   0.000051   0.000025
    28  H   -0.000040   0.000058   0.000648   0.000001  -0.000030  -0.000000
              13         14         15         16         17         18
     1  C    0.000295  -0.002166   0.000549   0.000120  -0.000058  -0.000041
     2  H   -0.000013   0.000038   0.000191  -0.000099   0.000094   0.000017
     3  H   -0.000067  -0.001508  -0.000016  -0.000001  -0.000011   0.000000
     4  C   -0.000357  -0.000577  -0.000019  -0.000004  -0.000061   0.000001
     5  C   -0.000097   0.000102  -0.000025   0.000001   0.000096  -0.000000
     6  H    0.000016  -0.000002  -0.000043  -0.000001   0.000361  -0.000000
     7  H   -0.000005   0.000005   0.000000  -0.000000  -0.000001   0.000000
     8  H   -0.000004   0.000001  -0.000001   0.000000  -0.000000   0.000000
     9  C   -0.041711  -0.043875  -0.000000   0.000000  -0.000001   0.000000
    10  H   -0.001238   0.003330  -0.000000  -0.000000   0.000000   0.000000
    11  C    0.401889   0.409145  -0.000000   0.000000  -0.000000   0.000000
    12  H   -0.035520  -0.027817   0.000000  -0.000000  -0.000000   0.000000
    13  H    0.585671  -0.029082  -0.000000   0.000000   0.000000  -0.000000
    14  H   -0.029082   0.577276   0.000000  -0.000000   0.000000   0.000000
    15  C   -0.000000   0.000000   4.904567   0.401034   0.406928   0.400306
    16  H    0.000000  -0.000000   0.401034   0.586876  -0.028092  -0.035758
    17  H    0.000000   0.000000   0.406928  -0.028092   0.570628  -0.026774
    18  H   -0.000000   0.000000   0.400306  -0.035758  -0.026774   0.585123
    19  C    0.000000   0.000001   0.350683  -0.043358  -0.037727  -0.043642
    20  C   -0.000000  -0.000000  -0.065053  -0.002670   0.003758  -0.002204
    21  H   -0.000000   0.000000   0.003789  -0.000029  -0.000115  -0.000055
    22  H    0.000000  -0.000000  -0.001990   0.002769  -0.000068  -0.000448
    23  H   -0.000000   0.000000  -0.001177  -0.000486  -0.000032   0.002752
    24  C   -0.000007   0.000064  -0.044156  -0.000024  -0.003150  -0.000377
    25  H   -0.000000   0.000025   0.003541  -0.000122   0.000051  -0.000120
    26  C    0.000149  -0.000554  -0.007949   0.000348  -0.002567   0.000140
    27  H   -0.000081   0.000016   0.000178  -0.000014   0.000062   0.000024
    28  H   -0.000000  -0.000004  -0.002567  -0.000063  -0.001997   0.000086
              19         20         21         22         23         24
     1  C   -0.004098  -0.000102  -0.000003   0.000024  -0.000005  -0.062090
     2  H    0.001256  -0.000045  -0.000002  -0.000008   0.000002   0.000057
     3  H    0.000622  -0.000001   0.000002  -0.000001   0.000000  -0.001230
     4  C   -0.000004   0.000002   0.000000  -0.000000   0.000000   0.006210
     5  C    0.000007  -0.000000  -0.000000   0.000000  -0.000000  -0.000074
     6  H    0.000021  -0.000000  -0.000000   0.000000   0.000000  -0.000104
     7  H   -0.000000   0.000000  -0.000000  -0.000000   0.000000   0.000002
     8  H   -0.000001   0.000000  -0.000000  -0.000000   0.000000   0.000003
     9  C   -0.000003  -0.000000  -0.000000   0.000000  -0.000000   0.000036
    10  H    0.000000   0.000000   0.000000  -0.000000   0.000000   0.000002
    11  C    0.000000   0.000000  -0.000000  -0.000000  -0.000000  -0.000027
    12  H   -0.000000   0.000000  -0.000000  -0.000000   0.000000   0.000002
    13  H    0.000000  -0.000000  -0.000000   0.000000  -0.000000  -0.000007
    14  H    0.000001  -0.000000   0.000000  -0.000000   0.000000   0.000064
    15  C    0.350683  -0.065053   0.003789  -0.001990  -0.001177  -0.044156
    16  H   -0.043358  -0.002670  -0.000029   0.002769  -0.000486  -0.000024
    17  H   -0.037727   0.003758  -0.000115  -0.000068  -0.000032  -0.003150
    18  H   -0.043642  -0.002204  -0.000055  -0.000448   0.002752  -0.000377
    19  C    4.915064   0.353472  -0.041665  -0.043823  -0.044307   0.696285
    20  C    0.353472   4.900552   0.406165   0.398175   0.398829  -0.044228
    21  H   -0.041665   0.406165   0.565965  -0.026667  -0.026546  -0.002577
    22  H   -0.043823   0.398175  -0.026667   0.594540  -0.037823  -0.000470
    23  H   -0.044307   0.398829  -0.026546  -0.037823   0.593696  -0.001279
    24  C    0.696285  -0.044228  -0.002577  -0.000470  -0.001279   4.960935
    25  H   -0.038332  -0.006998   0.002368   0.000180   0.000188   0.403960
    26  C   -0.049354   0.003136   0.000144  -0.000071  -0.000128   0.340992
    27  H    0.001446  -0.000091  -0.000009  -0.000002   0.000009  -0.041006
    28  H    0.000417   0.000050   0.000007  -0.000004   0.000006  -0.044503
              25         26         27         28
     1  C   -0.000091   0.331129  -0.046716  -0.042601
     2  H    0.000171  -0.045729   0.004692  -0.002340
     3  H    0.001049  -0.042384  -0.002896   0.004316
     4  C   -0.000105  -0.055684  -0.001441  -0.002245
     5  C   -0.000002  -0.001011   0.000280  -0.000436
     6  H   -0.000000   0.000669  -0.000003  -0.000466
     7  H    0.000000  -0.000108  -0.000004  -0.000040
     8  H    0.000000   0.000075   0.000005   0.000058
     9  C    0.000007  -0.004455   0.001236   0.000648
    10  H   -0.000000  -0.000120  -0.000038   0.000001
    11  C   -0.000002   0.000509   0.000051  -0.000030
    12  H   -0.000000  -0.000037   0.000025  -0.000000
    13  H   -0.000000   0.000149  -0.000081  -0.000000
    14  H    0.000025  -0.000554   0.000016  -0.000004
    15  C    0.003541  -0.007949   0.000178  -0.002567
    16  H   -0.000122   0.000348  -0.000014  -0.000063
    17  H    0.000051  -0.002567   0.000062  -0.001997
    18  H   -0.000120   0.000140   0.000024   0.000086
    19  C   -0.038332  -0.049354   0.001446   0.000417
    20  C   -0.006998   0.003136  -0.000091   0.000050
    21  H    0.002368   0.000144  -0.000009   0.000007
    22  H    0.000180  -0.000071  -0.000002  -0.000004
    23  H    0.000188  -0.000128   0.000009   0.000006
    24  C    0.403960   0.340992  -0.041006  -0.044503
    25  H    0.558056  -0.040061  -0.003353   0.003267
    26  C   -0.040061   4.977839   0.413228   0.416251
    27  H   -0.003353   0.413228   0.579538  -0.028540
    28  H    0.003267   0.416251  -0.028540   0.582598
 Mulliken charges:
               1
     1  C   -0.235696
     2  H    0.118365
     3  H    0.121814
     4  C    0.017883
     5  C   -0.340845
     6  H    0.111985
     7  H    0.118112
     8  H    0.118156
     9  C   -0.153908
    10  H    0.115552
    11  C   -0.353585
    12  H    0.120250
    13  H    0.120162
    14  H    0.115581
    15  C   -0.348771
    16  H    0.119572
    17  H    0.118676
    18  H    0.120971
    19  C    0.027041
    20  C   -0.342746
    21  H    0.119226
    22  H    0.115688
    23  H    0.116299
    24  C   -0.163245
    25  H    0.116321
    26  C   -0.234395
    27  H    0.123405
    28  H    0.118132
 Sum of Mulliken charges =  -0.00000
 Mulliken charges with hydrogens summed into heavy atoms:
               1
     1  C    0.004483
     4  C    0.017883
     5  C    0.007409
     9  C   -0.038356
    11  C    0.002408
    15  C    0.010448
    19  C    0.027041
    20  C    0.008468
    24  C   -0.046924
    26  C    0.007142
 Electronic spatial extent (au):  <R**2>=           2498.6148
 Charge=             -0.0000 electrons
 Dipole moment (field-independent basis, Debye):
    X=             -0.3626    Y=              0.1699    Z=              0.0498  Tot=              0.4035
 Quadrupole moment (field-independent basis, Debye-Ang):
   XX=            -63.7582   YY=            -63.7112   ZZ=            -67.3994
   XY=             -1.0617   XZ=             -1.2177   YZ=             -0.3674
 Traceless Quadrupole moment (field-independent basis, Debye-Ang):
   XX=              1.1981   YY=              1.2451   ZZ=             -2.4431
   XY=             -1.0617   XZ=             -1.2177   YZ=             -0.3674
 Octapole moment (field-independent basis, Debye-Ang**2):
  XXX=             -2.8323  YYY=             -2.8562  ZZZ=              0.8775  XYY=              0.7382
  XXY=              1.7309  XXZ=             -2.8066  XZZ=             -1.5462  YZZ=              1.4376
  YYZ=              0.7861  XYZ=              0.4940
 Hexadecapole moment (field-independent basis, Debye-Ang**3):
 XXXX=          -2633.5316 YYYY=           -638.9546 ZZZZ=           -166.0438 XXXY=            -10.5034
 XXXZ=            -13.5605 YYYX=              7.0823 YYYZ=             -1.6737 ZZZX=             -4.0400
 ZZZY=              2.3775 XXYY=           -550.6715 XXZZ=           -483.2672 YYZZ=           -131.1157
 XXYZ=             -4.5757 YYXZ=             -2.5312 ZZXY=             -7.7340
 N-N= 5.156965754120D+02 E-N=-1.936106516600D+03  KE= 3.887456765366D+02
 No NMR shielding tensors so no spin-rotation constants.
 Leave Link  601 at Fri Sep 17 15:25:28 2021, MaxMem=   524288000 cpu:               0.4 elap:               0.7
 (Enter /opt/gaussian/g16_legacy/l9999.exe)
 1\1\GINC-TRUENO91\FOpt\RMP2-FC\6-31G(d,p)\C10H18\JRAMOS\17-Sep-2021\0\
 \#p opt mp2/6-31g(d,p)\\Conformer number 2165. Energy MM = 23.287 kcal
 /mol\\0,1\C,-0.8889357652,-0.1319547243,-0.3591924785\H,-0.4218595017,
 -0.023783939,-1.3420226351\H,-1.2960057255,-1.1439627499,-0.324076109\
 C,-1.9743249506,0.9030566454,-0.2027330985\C,-1.7128839917,2.217806812
 2,-0.8865234205\H,-0.7592754757,2.6437516322,-0.5663474248\H,-2.495847
 6214,2.9438681751,-0.6713318105\H,-1.6543179437,2.0871819365,-1.969283
 1014\C,-3.0866611068,0.7147671627,0.5314522123\H,-3.7913746852,1.53916
 33501,0.5974347601\C,-3.4730065914,-0.5218955459,1.2843958064\H,-4.426
 7244125,-0.9145761226,0.9268176381\H,-3.5979862308,-0.30255079,2.34632
 77934\H,-2.7298190817,-1.3107713558,1.1953675514\C,2.9549793168,0.4806
 374092,-0.6442023531\H,3.2075926267,0.351560157,-1.6987841433\H,2.2099
 161443,1.268894745,-0.5729999812\H,3.8627376036,0.8219864961,-0.141670
 8619\C,2.4881737114,-0.8241464195,-0.0606922897\C,3.4697159385,-1.9563
 221257,-0.1887101277\H,3.0827048625,-2.8733039469,0.2529985503\H,3.702
 933196,-2.1528504284,-1.2376011935\H,4.4129004424,-1.7102954979,0.3044
 064171\C,1.2974631133,-1.0067428836,0.5405992808\H,1.0692803206,-2.005
 9678612,0.9033429071\C,0.2057371775,0.0064592775,0.7163474547\H,-0.258
 600932,-0.121968741,1.6975461732\H,0.6031895623,1.0220593327,0.6971344
 84\\Version=EM64L-G16RevA.03\State=1-A\HF=-389.1568792\MP2=-390.573553
 \RMSD=2.359e-09\RMSF=3.804e-06\Dipole=0.1063977,0.0030259,-0.0426492\P
 G=C01 [X(C10H18)]\\@


 The mind is not a vessel to be filled but a fire to be kindled.
                                  -- Plutarch
 Job cpu time:       0 days  1 hours 52 minutes 38.0 seconds.
 Elapsed time:       0 days  1 hours 52 minutes 49.2 seconds.
 File lengths (MBytes):  RWF=     32 Int=      0 D2E=      0 Chk=      7 Scr=      1
 Normal termination of Gaussian 16 at Fri Sep 17 15:25:29 2021.
