 Entering Gaussian System, Link 0=/opt/gaussian/g16_legacy/g16
 Input=01-IsoP_2780_gaussian.com
 Output=01-IsoP_2780_gaussian.log
 Initial command:
 /opt/gaussian/g16_legacy/l1.exe "/scratch-local/jramos/2661375/Gau-6500.inp" -scrdir="/scratch-local/jramos/2661375/"
 Entering Link 1 = /opt/gaussian/g16_legacy/l1.exe PID=      6507.
  
 Copyright (c) 1988,1990,1992,1993,1995,1998,2003,2009,2016,
            Gaussian, Inc.  All Rights Reserved.
  
 This is part of the Gaussian(R) 16 program.  It is based on
 the Gaussian(R) 09 system (copyright 2009, Gaussian, Inc.),
 the Gaussian(R) 03 system (copyright 2003, Gaussian, Inc.),
 the Gaussian(R) 98 system (copyright 1998, Gaussian, Inc.),
 the Gaussian(R) 94 system (copyright 1995, Gaussian, Inc.),
 the Gaussian 92(TM) system (copyright 1992, Gaussian, Inc.),
 the Gaussian 90(TM) system (copyright 1990, Gaussian, Inc.),
 the Gaussian 88(TM) system (copyright 1988, Gaussian, Inc.),
 the Gaussian 86(TM) system (copyright 1986, Carnegie Mellon
 University), and the Gaussian 82(TM) system (copyright 1983,
 Carnegie Mellon University). Gaussian is a federally registered
 trademark of Gaussian, Inc.
  
 This software contains proprietary and confidential information,
 including trade secrets, belonging to Gaussian, Inc.
  
 This software is provided under written license and may be
 used, copied, transmitted, or stored only in accord with that
 written license.
  
 The following legend is applicable only to US Government
 contracts under FAR:
  
                    RESTRICTED RIGHTS LEGEND
  
 Use, reproduction and disclosure by the US Government is
 subject to restrictions as set forth in subparagraphs (a)
 and (c) of the Commercial Computer Software - Restricted
 Rights clause in FAR 52.227-19.
  
 Gaussian, Inc.
 340 Quinnipiac St., Bldg. 40, Wallingford CT 06492
  
  
 ---------------------------------------------------------------
 Warning -- This program may not be used in any manner that
 competes with the business of Gaussian, Inc. or will provide
 assistance to any competitor of Gaussian, Inc.  The licensee
 of this program is prohibited from giving any competitor of
 Gaussian, Inc. access to this program.  By using this program,
 the user acknowledges that Gaussian, Inc. is engaged in the
 business of creating and licensing software in the field of
 computational chemistry and represents and warrants to the
 licensee that it is not a competitor of Gaussian, Inc. and that
 it will not use this program in any manner prohibited above.
 ---------------------------------------------------------------
  

 Cite this work as:
 Gaussian 16, Revision A.03,
 M. J. Frisch, G. W. Trucks, H. B. Schlegel, G. E. Scuseria, 
 M. A. Robb, J. R. Cheeseman, G. Scalmani, V. Barone, 
 G. A. Petersson, H. Nakatsuji, X. Li, M. Caricato, A. V. Marenich, 
 J. Bloino, B. G. Janesko, R. Gomperts, B. Mennucci, H. P. Hratchian, 
 J. V. Ortiz, A. F. Izmaylov, J. L. Sonnenberg, D. Williams-Young, 
 F. Ding, F. Lipparini, F. Egidi, J. Goings, B. Peng, A. Petrone, 
 T. Henderson, D. Ranasinghe, V. G. Zakrzewski, J. Gao, N. Rega, 
 G. Zheng, W. Liang, M. Hada, M. Ehara, K. Toyota, R. Fukuda, 
 J. Hasegawa, M. Ishida, T. Nakajima, Y. Honda, O. Kitao, H. Nakai, 
 T. Vreven, K. Throssell, J. A. Montgomery, Jr., J. E. Peralta, 
 F. Ogliaro, M. J. Bearpark, J. J. Heyd, E. N. Brothers, K. N. Kudin, 
 V. N. Staroverov, T. A. Keith, R. Kobayashi, J. Normand, 
 K. Raghavachari, A. P. Rendell, J. C. Burant, S. S. Iyengar, 
 J. Tomasi, M. Cossi, J. M. Millam, M. Klene, C. Adamo, R. Cammi, 
 J. W. Ochterski, R. L. Martin, K. Morokuma, O. Farkas, 
 J. B. Foresman, and D. J. Fox, Gaussian, Inc., Wallingford CT, 2016.
 
 ******************************************
 Gaussian 16:  EM64L-G16RevA.03 25-Dec-2016
                17-Sep-2021 
 ******************************************
 %chk=01-IsoP_2780_gaussian.chk
 %nproc=1
 Will use up to    1 processors via shared memory.
 %mem=4000Mb
 ---------------------
 #p opt mp2/6-31g(d,p)
 ---------------------
 1/18=20,19=15,38=1/1,3;
 2/9=110,12=2,17=6,18=5,40=1/2;
 3/5=1,6=6,7=101,11=9,25=1,30=1,71=1/1,2,3;
 4//1;
 5/5=2,38=5/2;
 8/6=4,10=2/1;
 9/15=2,16=-3/6;
 10/5=1/2;
 6/7=2,8=2,9=2,10=2/1;
 7/12=2/1,2,3,16;
 1/18=20,19=15/3(2);
 2/9=110/2;
 99//99;
 2/9=110/2;
 3/5=1,6=6,7=101,11=9,25=1,30=1,71=1/1,2,3;
 4/5=5,16=3,69=1/1;
 5/5=2,38=5/2;
 8/6=4,10=2/1;
 9/15=2,16=-3/6;
 10/5=1/2;
 7/12=2/1,2,3,16;
 1/18=20,19=15/3(-8);
 2/9=110/2;
 6/7=2,8=2,9=2,10=2/1;
 99//99;
 Leave Link    1 at Fri Sep 17 14:50:11 2021, MaxMem=   524288000 cpu:               0.0 elap:               0.1
 (Enter /opt/gaussian/g16_legacy/l101.exe)
 --------------------------------------------------
 Conformer number 2780. Energy MM = 23.242 kcal/mol
 --------------------------------------------------
 Symbolic Z-matrix:
 Charge =  0 Multiplicity = 1
 C                     0.6265   -1.0171    0.2758 
 H                     0.4213   -0.6106    1.2733 
 H                     0.3387   -2.0752    0.3383 
 C                     2.1046   -0.9257   -0.043 
 C                     2.6206   -1.9809   -0.9874 
 H                     3.6941   -1.8778   -1.178 
 H                     2.4534   -2.979    -0.5694 
 H                     2.1066   -1.9162   -1.9515 
 C                     2.9389   -0.0022    0.4744 
 H                     3.9922   -0.0377    0.1974 
 C                     2.5923    1.1222    1.3984 
 H                     3.0621    0.9603    2.3732 
 H                     1.5177    1.247     1.549 
 H                     2.9748    2.0622    0.9878 
 C                    -3.9622    0.2656    0.3263 
 H                    -4.573     0.9852   -0.2287 
 H                    -4.2565   -0.7385    0.0033 
 H                    -4.1998    0.355     1.3914 
 C                    -2.4987    0.5361    0.093 
 C                    -2.0485    1.908     0.5135 
 H                    -0.9659    2.0444    0.4629 
 H                    -2.3431    2.0984    1.5512 
 H                    -2.5147    2.6681   -0.1217 
 C                    -1.7014   -0.4108   -0.4391 
 H                    -2.1387   -1.3779   -0.6879 
 C                    -0.2363   -0.3      -0.7675 
 H                    -0.0804   -0.7479   -1.7571 
 H                     0.0754    0.745    -0.8662 
 
 ITRead=  0  0  0  0  0  0  0  0  0  0  0  0  0  0  0  0  0  0  0  0
 ITRead=  0  0  0  0  0  0  0  0
 MicOpt= -1 -1 -1 -1 -1 -1 -1 -1 -1 -1 -1 -1 -1 -1 -1 -1 -1 -1 -1 -1
 MicOpt= -1 -1 -1 -1 -1 -1 -1 -1
 NAtoms=     28 NQM=       28 NQMF=       0 NMMI=      0 NMMIF=      0
                NMic=       0 NMicF=      0.
                    Isotopes and Nuclear Properties:
 (Nuclear quadrupole moments (NQMom) in fm**2, nuclear magnetic moments (NMagM)
  in nuclear magnetons)

  Atom         1           2           3           4           5           6           7           8           9          10
 IAtWgt=          12           1           1          12          12           1           1           1          12           1
 AtmWgt=  12.0000000   1.0078250   1.0078250  12.0000000  12.0000000   1.0078250   1.0078250   1.0078250  12.0000000   1.0078250
 NucSpn=           0           1           1           0           0           1           1           1           0           1
 AtZEff=  -0.0000000  -0.0000000  -0.0000000  -0.0000000  -0.0000000  -0.0000000  -0.0000000  -0.0000000  -0.0000000  -0.0000000
 NQMom=    0.0000000   0.0000000   0.0000000   0.0000000   0.0000000   0.0000000   0.0000000   0.0000000   0.0000000   0.0000000
 NMagM=    0.0000000   2.7928460   2.7928460   0.0000000   0.0000000   2.7928460   2.7928460   2.7928460   0.0000000   2.7928460
 AtZNuc=   6.0000000   1.0000000   1.0000000   6.0000000   6.0000000   1.0000000   1.0000000   1.0000000   6.0000000   1.0000000

  Atom        11          12          13          14          15          16          17          18          19          20
 IAtWgt=          12           1           1           1          12           1           1           1          12          12
 AtmWgt=  12.0000000   1.0078250   1.0078250   1.0078250  12.0000000   1.0078250   1.0078250   1.0078250  12.0000000  12.0000000
 NucSpn=           0           1           1           1           0           1           1           1           0           0
 AtZEff=  -0.0000000  -0.0000000  -0.0000000  -0.0000000  -0.0000000  -0.0000000  -0.0000000  -0.0000000  -0.0000000  -0.0000000
 NQMom=    0.0000000   0.0000000   0.0000000   0.0000000   0.0000000   0.0000000   0.0000000   0.0000000   0.0000000   0.0000000
 NMagM=    0.0000000   2.7928460   2.7928460   2.7928460   0.0000000   2.7928460   2.7928460   2.7928460   0.0000000   0.0000000
 AtZNuc=   6.0000000   1.0000000   1.0000000   1.0000000   6.0000000   1.0000000   1.0000000   1.0000000   6.0000000   6.0000000

  Atom        21          22          23          24          25          26          27          28
 IAtWgt=           1           1           1          12           1          12           1           1
 AtmWgt=   1.0078250   1.0078250   1.0078250  12.0000000   1.0078250  12.0000000   1.0078250   1.0078250
 NucSpn=           1           1           1           0           1           0           1           1
 AtZEff=  -0.0000000  -0.0000000  -0.0000000  -0.0000000  -0.0000000  -0.0000000  -0.0000000  -0.0000000
 NQMom=    0.0000000   0.0000000   0.0000000   0.0000000   0.0000000   0.0000000   0.0000000   0.0000000
 NMagM=    2.7928460   2.7928460   2.7928460   0.0000000   2.7928460   0.0000000   2.7928460   2.7928460
 AtZNuc=   1.0000000   1.0000000   1.0000000   6.0000000   1.0000000   6.0000000   1.0000000   1.0000000
 Leave Link  101 at Fri Sep 17 14:50:12 2021, MaxMem=   524288000 cpu:               0.3 elap:               0.6
 (Enter /opt/gaussian/g16_legacy/l103.exe)

 GradGradGradGradGradGradGradGradGradGradGradGradGradGradGradGradGradGrad
 Berny optimization.
 Initialization pass.
                           ----------------------------
                           !    Initial Parameters    !
                           ! (Angstroms and Degrees)  !
 --------------------------                            --------------------------
 ! Name  Definition              Value          Derivative Info.                !
 --------------------------------------------------------------------------------
 ! R1    R(1,2)                  1.0965         estimate D2E/DX2                !
 ! R2    R(1,3)                  1.0983         estimate D2E/DX2                !
 ! R3    R(1,4)                  1.5148         estimate D2E/DX2                !
 ! R4    R(1,26)                 1.532          estimate D2E/DX2                !
 ! R5    R(4,5)                  1.5072         estimate D2E/DX2                !
 ! R6    R(4,9)                  1.3478         estimate D2E/DX2                !
 ! R7    R(5,6)                  1.0952         estimate D2E/DX2                !
 ! R8    R(5,7)                  1.0949         estimate D2E/DX2                !
 ! R9    R(5,8)                  1.0945         estimate D2E/DX2                !
 ! R10   R(9,10)                 1.0897         estimate D2E/DX2                !
 ! R11   R(9,11)                 1.4961         estimate D2E/DX2                !
 ! R12   R(11,12)                1.0941         estimate D2E/DX2                !
 ! R13   R(11,13)                1.0923         estimate D2E/DX2                !
 ! R14   R(11,14)                1.0948         estimate D2E/DX2                !
 ! R15   R(15,16)                1.095          estimate D2E/DX2                !
 ! R16   R(15,17)                1.0951         estimate D2E/DX2                !
 ! R17   R(15,18)                1.0949         estimate D2E/DX2                !
 ! R18   R(15,19)                1.5065         estimate D2E/DX2                !
 ! R19   R(19,20)                1.5039         estimate D2E/DX2                !
 ! R20   R(19,24)                1.3474         estimate D2E/DX2                !
 ! R21   R(20,21)                1.0923         estimate D2E/DX2                !
 ! R22   R(20,22)                1.0954         estimate D2E/DX2                !
 ! R23   R(20,23)                1.0948         estimate D2E/DX2                !
 ! R24   R(24,25)                1.0901         estimate D2E/DX2                !
 ! R25   R(24,26)                1.5055         estimate D2E/DX2                !
 ! R26   R(26,27)                1.0974         estimate D2E/DX2                !
 ! R27   R(26,28)                1.095          estimate D2E/DX2                !
 ! A1    A(2,1,3)              104.853          estimate D2E/DX2                !
 ! A2    A(2,1,4)              110.5898         estimate D2E/DX2                !
 ! A3    A(2,1,26)             109.9123         estimate D2E/DX2                !
 ! A4    A(3,1,4)              109.0129         estimate D2E/DX2                !
 ! A5    A(3,1,26)             110.0054         estimate D2E/DX2                !
 ! A6    A(4,1,26)             112.207          estimate D2E/DX2                !
 ! A7    A(1,4,5)              115.0672         estimate D2E/DX2                !
 ! A8    A(1,4,9)              124.3702         estimate D2E/DX2                !
 ! A9    A(5,4,9)              120.5522         estimate D2E/DX2                !
 ! A10   A(4,5,6)              112.2553         estimate D2E/DX2                !
 ! A11   A(4,5,7)              110.2861         estimate D2E/DX2                !
 ! A12   A(4,5,8)              110.4744         estimate D2E/DX2                !
 ! A13   A(6,5,7)              107.5742         estimate D2E/DX2                !
 ! A14   A(6,5,8)              107.5461         estimate D2E/DX2                !
 ! A15   A(7,5,8)              108.5696         estimate D2E/DX2                !
 ! A16   A(4,9,10)             118.5825         estimate D2E/DX2                !
 ! A17   A(4,9,11)             127.4921         estimate D2E/DX2                !
 ! A18   A(10,9,11)            113.9177         estimate D2E/DX2                !
 ! A19   A(9,11,12)            109.8506         estimate D2E/DX2                !
 ! A20   A(9,11,13)            113.5134         estimate D2E/DX2                !
 ! A21   A(9,11,14)            109.4351         estimate D2E/DX2                !
 ! A22   A(12,11,13)           108.4515         estimate D2E/DX2                !
 ! A23   A(12,11,14)           108.1304         estimate D2E/DX2                !
 ! A24   A(13,11,14)           107.2985         estimate D2E/DX2                !
 ! A25   A(16,15,17)           107.6488         estimate D2E/DX2                !
 ! A26   A(16,15,18)           108.5632         estimate D2E/DX2                !
 ! A27   A(16,15,19)           110.2074         estimate D2E/DX2                !
 ! A28   A(17,15,18)           107.6662         estimate D2E/DX2                !
 ! A29   A(17,15,19)           112.337          estimate D2E/DX2                !
 ! A30   A(18,15,19)           110.2915         estimate D2E/DX2                !
 ! A31   A(15,19,20)           114.2881         estimate D2E/DX2                !
 ! A32   A(15,19,24)           120.6528         estimate D2E/DX2                !
 ! A33   A(20,19,24)           125.0563         estimate D2E/DX2                !
 ! A34   A(19,20,21)           113.4317         estimate D2E/DX2                !
 ! A35   A(19,20,22)           110.0563         estimate D2E/DX2                !
 ! A36   A(19,20,23)           110.0995         estimate D2E/DX2                !
 ! A37   A(21,20,22)           106.7819         estimate D2E/DX2                !
 ! A38   A(21,20,23)           107.9669         estimate D2E/DX2                !
 ! A39   A(22,20,23)           108.327          estimate D2E/DX2                !
 ! A40   A(19,24,25)           118.4381         estimate D2E/DX2                !
 ! A41   A(19,24,26)           127.6089         estimate D2E/DX2                !
 ! A42   A(25,24,26)           113.9457         estimate D2E/DX2                !
 ! A43   A(1,26,24)            111.411          estimate D2E/DX2                !
 ! A44   A(1,26,27)            110.0632         estimate D2E/DX2                !
 ! A45   A(1,26,28)            110.3518         estimate D2E/DX2                !
 ! A46   A(24,26,27)           107.7533         estimate D2E/DX2                !
 ! A47   A(24,26,28)           111.526          estimate D2E/DX2                !
 ! A48   A(27,26,28)           105.5337         estimate D2E/DX2                !
 ! D1    D(2,1,4,5)            151.4206         estimate D2E/DX2                !
 ! D2    D(2,1,4,9)            -27.4127         estimate D2E/DX2                !
 ! D3    D(3,1,4,5)             36.644          estimate D2E/DX2                !
 ! D4    D(3,1,4,9)           -142.1893         estimate D2E/DX2                !
 ! D5    D(26,1,4,5)           -85.4635         estimate D2E/DX2                !
 ! D6    D(26,1,4,9)            95.7031         estimate D2E/DX2                !
 ! D7    D(2,1,26,24)          -56.9334         estimate D2E/DX2                !
 ! D8    D(2,1,26,27)         -176.3984         estimate D2E/DX2                !
 ! D9    D(2,1,26,28)           67.5256         estimate D2E/DX2                !
 ! D10   D(3,1,26,24)           58.0293         estimate D2E/DX2                !
 ! D11   D(3,1,26,27)          -61.4356         estimate D2E/DX2                !
 ! D12   D(3,1,26,28)         -177.5117         estimate D2E/DX2                !
 ! D13   D(4,1,26,24)          179.5703         estimate D2E/DX2                !
 ! D14   D(4,1,26,27)           60.1053         estimate D2E/DX2                !
 ! D15   D(4,1,26,28)          -55.9707         estimate D2E/DX2                !
 ! D16   D(1,4,5,6)           -179.438          estimate D2E/DX2                !
 ! D17   D(1,4,5,7)            -59.4988         estimate D2E/DX2                !
 ! D18   D(1,4,5,8)             60.5291         estimate D2E/DX2                !
 ! D19   D(9,4,5,6)             -0.5562         estimate D2E/DX2                !
 ! D20   D(9,4,5,7)            119.383          estimate D2E/DX2                !
 ! D21   D(9,4,5,8)           -120.5891         estimate D2E/DX2                !
 ! D22   D(1,4,9,10)           178.5958         estimate D2E/DX2                !
 ! D23   D(1,4,9,11)            -2.4805         estimate D2E/DX2                !
 ! D24   D(5,4,9,10)            -0.177          estimate D2E/DX2                !
 ! D25   D(5,4,9,11)           178.7466         estimate D2E/DX2                !
 ! D26   D(4,9,11,12)          113.6795         estimate D2E/DX2                !
 ! D27   D(4,9,11,13)           -7.9243         estimate D2E/DX2                !
 ! D28   D(4,9,11,14)         -127.7518         estimate D2E/DX2                !
 ! D29   D(10,9,11,12)         -67.3545         estimate D2E/DX2                !
 ! D30   D(10,9,11,13)         171.0417         estimate D2E/DX2                !
 ! D31   D(10,9,11,14)          51.2143         estimate D2E/DX2                !
 ! D32   D(16,15,19,20)         59.5975         estimate D2E/DX2                !
 ! D33   D(16,15,19,24)       -120.9893         estimate D2E/DX2                !
 ! D34   D(17,15,19,20)        179.6313         estimate D2E/DX2                !
 ! D35   D(17,15,19,24)         -0.9556         estimate D2E/DX2                !
 ! D36   D(18,15,19,20)        -60.255          estimate D2E/DX2                !
 ! D37   D(18,15,19,24)        119.1582         estimate D2E/DX2                !
 ! D38   D(15,19,20,21)        172.338          estimate D2E/DX2                !
 ! D39   D(15,19,20,22)         52.7855         estimate D2E/DX2                !
 ! D40   D(15,19,20,23)        -66.5582         estimate D2E/DX2                !
 ! D41   D(24,19,20,21)         -7.0453         estimate D2E/DX2                !
 ! D42   D(24,19,20,22)       -126.5978         estimate D2E/DX2                !
 ! D43   D(24,19,20,23)        114.0586         estimate D2E/DX2                !
 ! D44   D(15,19,24,25)         -0.5213         estimate D2E/DX2                !
 ! D45   D(15,19,24,26)        178.4301         estimate D2E/DX2                !
 ! D46   D(20,19,24,25)        178.8253         estimate D2E/DX2                !
 ! D47   D(20,19,24,26)         -2.2234         estimate D2E/DX2                !
 ! D48   D(19,24,26,1)         103.3652         estimate D2E/DX2                !
 ! D49   D(19,24,26,27)       -135.8073         estimate D2E/DX2                !
 ! D50   D(19,24,26,28)        -20.4308         estimate D2E/DX2                !
 ! D51   D(25,24,26,1)         -77.6438         estimate D2E/DX2                !
 ! D52   D(25,24,26,27)         43.1837         estimate D2E/DX2                !
 ! D53   D(25,24,26,28)        158.5602         estimate D2E/DX2                !
 --------------------------------------------------------------------------------
 Trust Radius=3.00D-01 FncErr=1.00D-07 GrdErr=1.00D-07 EigMax=2.50D+02 EigMin=1.00D-04
 Number of steps in this run=    138 maximum allowed number of steps=    168.
 GradGradGradGradGradGradGradGradGradGradGradGradGradGradGradGradGradGrad

 Leave Link  103 at Fri Sep 17 14:50:12 2021, MaxMem=   524288000 cpu:               0.1 elap:               0.1
 (Enter /opt/gaussian/g16_legacy/l202.exe)
                          Input orientation:                          
 ---------------------------------------------------------------------
 Center     Atomic      Atomic             Coordinates (Angstroms)
 Number     Number       Type             X           Y           Z
 ---------------------------------------------------------------------
      1          6           0        0.626500   -1.017100    0.275800
      2          1           0        0.421300   -0.610600    1.273300
      3          1           0        0.338700   -2.075200    0.338300
      4          6           0        2.104600   -0.925700   -0.043000
      5          6           0        2.620600   -1.980900   -0.987400
      6          1           0        3.694100   -1.877800   -1.178000
      7          1           0        2.453400   -2.979000   -0.569400
      8          1           0        2.106600   -1.916200   -1.951500
      9          6           0        2.938900   -0.002200    0.474400
     10          1           0        3.992200   -0.037700    0.197400
     11          6           0        2.592300    1.122200    1.398400
     12          1           0        3.062100    0.960300    2.373200
     13          1           0        1.517700    1.247000    1.549000
     14          1           0        2.974800    2.062200    0.987800
     15          6           0       -3.962200    0.265600    0.326300
     16          1           0       -4.573000    0.985200   -0.228700
     17          1           0       -4.256500   -0.738500    0.003300
     18          1           0       -4.199800    0.355000    1.391400
     19          6           0       -2.498700    0.536100    0.093000
     20          6           0       -2.048500    1.908000    0.513500
     21          1           0       -0.965900    2.044400    0.462900
     22          1           0       -2.343100    2.098400    1.551200
     23          1           0       -2.514700    2.668100   -0.121700
     24          6           0       -1.701400   -0.410800   -0.439100
     25          1           0       -2.138700   -1.377900   -0.687900
     26          6           0       -0.236300   -0.300000   -0.767500
     27          1           0       -0.080400   -0.747900   -1.757100
     28          1           0        0.075400    0.745000   -0.866200
 ---------------------------------------------------------------------
                    Distance matrix (angstroms):
                    1          2          3          4          5
     1  C    0.000000
     2  H    1.096520   0.000000
     3  H    1.098322   1.739569   0.000000
     4  C    1.514849   2.159961   2.141295   0.000000
     5  C    2.549710   3.438809   2.640727   1.507181   0.000000
     6  H    3.502072   4.280875   3.687390   2.172839   1.095153
     7  H    2.810868   3.624126   2.472394   2.148208   1.094935
     8  H    2.821337   3.865768   2.897229   2.150225   1.094473
     9  C    2.533112   2.710480   3.328197   1.347817   2.480610
    10  H    3.506181   3.773208   4.185609   2.099850   2.657266
    11  C    3.114676   2.780555   4.052887   2.551349   3.914342
    12  H    3.773771   3.263638   4.557629   3.211203   4.487673
    13  H    2.746165   2.174576   3.727311   2.756726   4.250771
    14  H    3.937454   3.707524   4.948631   3.278314   4.513705
    15  C    4.764875   4.569421   4.896655   6.193677   7.078547
    16  H    5.594509   5.453954   5.814837   6.948120   7.818008
    17  H    4.898527   4.848822   4.797380   6.364022   7.058296
    18  H    5.140077   4.722382   5.254795   6.591142   7.591638
    19  C    3.494670   3.351780   3.863923   4.831742   5.806013
    20  C    3.970936   3.608400   4.647074   5.058437   6.259132
    21  H    3.455941   3.103240   4.323033   4.301790   5.582956
    22  H    4.489043   3.880440   5.107065   5.609696   6.908219
    23  H    4.858584   4.616925   5.554492   5.853164   6.980970
    24  C    2.509542   2.734609   2.745284   3.861043   4.630932
    25  H    2.950462   3.314914   2.770708   4.315782   4.806688
    26  C    1.532035   2.166512   2.169044   2.529074   3.321996
    27  H    2.169069   3.074716   2.515566   2.782800   3.067267
    28  H    2.170915   2.556317   3.077934   2.754369   3.731389
                    6          7          8          9         10
     6  H    0.000000
     7  H    1.767023   0.000000
     8  H    1.766333   1.777643   0.000000
     9  C    2.611250   3.191640   3.200173   0.000000
    10  H    2.316583   3.406924   3.420822   1.089693   0.000000
    11  C    4.105094   4.550975   4.548583   1.496056   2.178873
    12  H    4.589690   4.954543   5.281123   2.132376   2.568111
    13  H    4.683761   4.818945   4.754591   2.176023   3.098456
    14  H    4.553206   5.301927   5.022044   2.127584   2.463618
    15  C    8.091725   7.244973   6.839514   6.907882   7.961224
    16  H    8.800164   8.074729   7.483530   7.609070   8.636581
    17  H    8.118221   7.097224   6.759975   7.248300   8.280691
    18  H    8.596561   7.695802   7.490261   7.206214   8.287865
    19  C    6.767062   6.108846   5.603797   5.477474   6.517049
    20  C    7.083143   6.732202   6.161622   5.340838   6.354189
    21  H    6.308075   6.163749   5.563806   4.408647   5.384086
    22  H    7.726997   7.299544   6.941596   5.785460   6.821417
    23  H    7.767250   7.534732   6.761685   6.101442   7.054284
    24  C    5.639990   4.886204   4.365140   4.746980   5.741203
    25  H    5.874662   4.864663   4.461953   5.387533   6.337809
    26  C    4.255115   3.801417   3.082716   3.422411   4.345117
    27  H    3.982321   3.578908   2.487104   3.827771   4.572803
    28  H    4.480099   4.428448   3.519323   3.248869   4.133423
                   11         12         13         14         15
    11  C    0.000000
    12  H    1.094147   0.000000
    13  H    1.092255   1.773887   0.000000
    14  H    1.094760   1.772326   1.761430   0.000000
    15  C    6.696613   7.349367   5.699776   7.196341   0.000000
    16  H    7.348996   8.066304   6.350227   7.720692   1.094955
    17  H    7.232881   7.878087   6.298634   7.816960   1.095061
    18  H    6.835296   7.352925   5.788809   7.385954   1.094936
    19  C    5.288276   6.025094   4.330910   5.752291   1.506463
    20  C    4.789317   5.520403   3.771865   5.047998   2.528788
    21  H    3.792941   4.587952   2.825549   3.975544   3.487206
    22  H    5.033338   5.584545   3.953563   5.347784   2.735145
    23  H    5.548149   6.343643   4.590317   5.633180   2.840417
    24  C    4.915522   5.699112   4.130793   5.478925   2.480841
    25  H    5.743301   6.471927   5.026239   6.386716   2.656096
    26  C    3.835981   4.725653   3.291792   4.355712   3.924109
    27  H    4.538478   5.463756   4.178977   4.976483   4.520631
    28  H    3.406681   4.411399   2.857521   3.684949   4.237227
                   16         17         18         19         20
    16  H    0.000000
    17  H    1.767806   0.000000
    18  H    1.777964   1.767987   0.000000
    19  C    2.146602   2.173134   2.147645   0.000000
    20  C    2.788462   3.484183   2.794747   1.503865   0.000000
    21  H    3.822484   4.334030   3.764876   2.182034   1.092331
    22  H    3.062632   3.755675   2.551924   2.142741   1.095382
    23  H    2.660865   3.828109   3.237200   2.142843   1.094794
    24  C    3.199870   2.613741   3.190483   1.347382   2.530762
    25  H    3.423583   2.317686   3.402141   2.098285   3.499805
    26  C    4.555108   4.116846   4.560615   2.560855   3.130542
    27  H    5.052039   4.531987   5.300839   3.304497   4.010342
    28  H    4.698055   4.660704   4.850381   2.754940   2.786950
                   21         22         23         24         25
    21  H    0.000000
    22  H    1.756130   0.000000
    23  H    1.769051   1.775556   0.000000
    24  C    2.717089   3.266368   3.200285   0.000000
    25  H    3.796306   4.140049   4.102691   1.090145   0.000000
    26  C    2.746345   3.945542   3.797075   1.505537   2.187997
    27  H    3.675520   4.915901   4.502156   2.116223   2.403474
    28  H    2.130552   3.677588   3.310772   2.162246   3.072578
                   26         27         28
    26  C    0.000000
    27  H    1.097373   0.000000
    28  H    1.094954   1.745488   0.000000
 Stoichiometry    C10H18
 Framework group  C1[X(C10H18)]
 Deg. of freedom    78
 Full point group                 C1      NOp   1
 Largest Abelian subgroup         C1      NOp   1
 Largest concise Abelian subgroup C1      NOp   1
                         Standard orientation:                         
 ---------------------------------------------------------------------
 Center     Atomic      Atomic             Coordinates (Angstroms)
 Number     Number       Type             X           Y           Z
 ---------------------------------------------------------------------
      1          6           0        0.793786   -0.586483    0.589224
      2          1           0        0.484585    0.235296    1.246058
      3          1           0        0.745978   -1.484325    1.220020
      4          6           0        2.220929   -0.386970    0.122079
      5          6           0        2.975621   -1.655030   -0.184613
      6          1           0        4.003203   -1.458191   -0.508171
      7          1           0        3.025284   -2.291782    0.704748
      8          1           0        2.478712   -2.212235   -0.984910
      9          6           0        2.820196    0.813937   -0.001659
     10          1           0        3.860400    0.846692   -0.324665
     11          6           0        2.215766    2.161884    0.234743
     12          1           0        2.690869    2.635716    1.098988
     13          1           0        1.137479    2.131941    0.406266
     14          1           0        2.388737    2.797137   -0.639919
     15          6           0       -3.965069   -0.407922    0.429692
     16          1           0       -4.709085   -0.227387   -0.353106
     17          1           0       -4.023731   -1.465970    0.705827
     18          1           0       -4.237032    0.181234    1.311630
     19          6           0       -2.593420   -0.018234   -0.056262
     20          6           0       -2.465971    1.425900   -0.456068
     21          1           0       -1.439578    1.725953   -0.678944
     22          1           0       -2.815322    2.072737    0.355978
     23          1           0       -3.076407    1.626142   -1.342547
     24          6           0       -1.596343   -0.923541   -0.097416
     25          1           0       -1.804049   -1.940139    0.236953
     26          6           0       -0.185981   -0.715645   -0.581461
     27          1           0        0.084154   -1.577197   -1.205147
     28          1           0       -0.111275    0.156993   -1.238611
 ---------------------------------------------------------------------
 Rotational constants (GHZ):           2.2181119           0.5802335           0.4854251
 Leave Link  202 at Fri Sep 17 14:50:12 2021, MaxMem=   524288000 cpu:               0.0 elap:               0.1
 (Enter /opt/gaussian/g16_legacy/l301.exe)
 Standard basis: 6-31G(d,p) (6D, 7F)
 Ernie: Thresh=  0.10000D-02 Tol=  0.10000D-05 Strict=F.
 There are   240 symmetry adapted cartesian basis functions of A   symmetry.
 There are   240 symmetry adapted basis functions of A   symmetry.
   240 basis functions,   406 primitive gaussians,   240 cartesian basis functions
    39 alpha electrons       39 beta electrons
       nuclear repulsion energy       516.4370927555 Hartrees.
 IExCor=    0 DFT=F Ex=HF Corr=None ExCW=0 ScaHFX=  1.000000
 ScaDFX=  1.000000  1.000000  1.000000  1.000000 ScalE2=  1.000000  1.000000
 IRadAn=      5 IRanWt=     -1 IRanGd=            0 ICorTp=0 IEmpDi=  4
 NAtoms=   28 NActive=   28 NUniq=   28 SFac= 1.00D+00 NAtFMM=   60 NAOKFM=F Big=F
 Integral buffers will be    131072 words long.
 Raffenetti 1 integral format.
 Two-electron integral symmetry is turned on.
 Leave Link  301 at Fri Sep 17 14:50:13 2021, MaxMem=   524288000 cpu:               0.1 elap:               0.2
 (Enter /opt/gaussian/g16_legacy/l302.exe)
 NPDir=0 NMtPBC=     1 NCelOv=     1 NCel=       1 NClECP=     1 NCelD=      1
         NCelK=      1 NCelE2=     1 NClLst=     1 CellRange=     0.0.
 One-electron integrals computed using PRISM.
 One-electron integral symmetry used in STVInt
 NBasis=   240 RedAO= T EigKep=  2.10D-03  NBF=   240
 NBsUse=   240 1.00D-06 EigRej= -1.00D+00 NBFU=   240
 Leave Link  302 at Fri Sep 17 14:50:13 2021, MaxMem=   524288000 cpu:               0.3 elap:               0.6
 (Enter /opt/gaussian/g16_legacy/l303.exe)
 DipDrv:  MaxL=1.
 Leave Link  303 at Fri Sep 17 14:50:14 2021, MaxMem=   524288000 cpu:               0.1 elap:               0.4
 (Enter /opt/gaussian/g16_legacy/l401.exe)
 ExpMin= 1.61D-01 ExpMax= 3.05D+03 ExpMxC= 4.57D+02 IAcc=3 IRadAn=         5 AccDes= 0.00D+00
 Harris functional with IExCor=  205 and IRadAn=       5 diagonalized for initial guess.
 HarFok:  IExCor=  205 AccDes= 0.00D+00 IRadAn=         5 IDoV= 1 UseB2=F ITyADJ=14
 ICtDFT=  3500011 ScaDFX=  1.000000  1.000000  1.000000  1.000000
 FoFCou: FMM=F IPFlag=           0 FMFlag=      100000 FMFlg1=           0
         NFxFlg=           0 DoJE=T BraDBF=F KetDBF=T FulRan=T
         wScrn=  0.000000 ICntrl=       500 IOpCl=  0 I1Cent=   200000004 NGrid=           0
         NMat0=    1 NMatS0=      1 NMatT0=    0 NMatD0=    1 NMtDS0=    0 NMtDT0=    0
 Petite list used in FoFCou.
 Harris En= -390.109919693370    
 JPrj=0 DoOrth=F DoCkMO=F.
 Leave Link  401 at Fri Sep 17 14:50:25 2021, MaxMem=   524288000 cpu:              11.3 elap:              11.5
 (Enter /opt/gaussian/g16_legacy/l502.exe)
 Keep R1 ints in memory in canonical form, NReq=425198025.
 FoFCou: FMM=F IPFlag=           0 FMFlag=           0 FMFlg1=           0
         NFxFlg=           0 DoJE=F BraDBF=F KetDBF=F FulRan=T
         wScrn=  0.000000 ICntrl=       600 IOpCl=  0 I1Cent=           0 NGrid=           0
         NMat0=    1 NMatS0=  28920 NMatT0=    0 NMatD0=    1 NMtDS0=    0 NMtDT0=    0
 Symmetry not used in FoFCou.
 Two-electron integral symmetry not used.
 Closed shell SCF:
 Using DIIS extrapolation, IDIIS=  1040.
 NGot=   524288000 LenX=   105970886 LenY=   105912845
 Requested convergence on RMS density matrix=1.00D-08 within 128 cycles.
 Requested convergence on MAX density matrix=1.00D-06.
 Requested convergence on             energy=1.00D-06.
 No special actions if energy rises.

 Cycle   1  Pass 1  IDiag  1:
 E= -388.533166506100    
 DIIS: error= 5.21D-02 at cycle   1 NSaved=   1.
 NSaved= 1 IEnMin= 1 EnMin= -388.533166506100     IErMin= 1 ErrMin= 5.21D-02
 ErrMax= 5.21D-02  0.00D+00 EMaxC= 1.00D-01 BMatC= 8.07D-01 BMatP= 8.07D-01
 IDIUse=3 WtCom= 4.79D-01 WtEn= 5.21D-01
 Coeff-Com:  0.100D+01
 Coeff-En:   0.100D+01
 Coeff:      0.100D+01
 Gap=     0.508 Goal=   None    Shift=    0.000
 GapD=    0.508 DampG=2.000 DampE=0.500 DampFc=1.0000 IDamp=-1.
 RMSDP=4.00D-03 MaxDP=1.14D-01              OVMax= 1.33D-01

 Cycle   2  Pass 1  IDiag  1:
 E= -389.073876781783     Delta-E=       -0.540710275682 Rises=F Damp=F
 DIIS: error= 1.59D-02 at cycle   2 NSaved=   2.
 NSaved= 2 IEnMin= 2 EnMin= -389.073876781783     IErMin= 2 ErrMin= 1.59D-02
 ErrMax= 1.59D-02  0.00D+00 EMaxC= 1.00D-01 BMatC= 8.66D-02 BMatP= 8.07D-01
 IDIUse=3 WtCom= 8.41D-01 WtEn= 1.59D-01
 Coeff-Com:  0.183D+00 0.817D+00
 Coeff-En:   0.000D+00 0.100D+01
 Coeff:      0.154D+00 0.846D+00
 Gap=     0.549 Goal=   None    Shift=    0.000
 RMSDP=1.63D-03 MaxDP=3.04D-02 DE=-5.41D-01 OVMax= 4.61D-02

 Cycle   3  Pass 1  IDiag  1:
 E= -389.151438824395     Delta-E=       -0.077562042612 Rises=F Damp=F
 DIIS: error= 3.43D-03 at cycle   3 NSaved=   3.
 NSaved= 3 IEnMin= 3 EnMin= -389.151438824395     IErMin= 3 ErrMin= 3.43D-03
 ErrMax= 3.43D-03  0.00D+00 EMaxC= 1.00D-01 BMatC= 3.14D-03 BMatP= 8.66D-02
 IDIUse=3 WtCom= 9.66D-01 WtEn= 3.43D-02
 Coeff-Com: -0.245D-01 0.106D+00 0.919D+00
 Coeff-En:   0.000D+00 0.000D+00 0.100D+01
 Coeff:     -0.236D-01 0.102D+00 0.921D+00
 Gap=     0.499 Goal=   None    Shift=    0.000
 RMSDP=2.59D-04 MaxDP=7.14D-03 DE=-7.76D-02 OVMax= 1.01D-02

 Cycle   4  Pass 1  IDiag  1:
 E= -389.155064507591     Delta-E=       -0.003625683196 Rises=F Damp=F
 DIIS: error= 5.31D-04 at cycle   4 NSaved=   4.
 NSaved= 4 IEnMin= 4 EnMin= -389.155064507591     IErMin= 4 ErrMin= 5.31D-04
 ErrMax= 5.31D-04  0.00D+00 EMaxC= 1.00D-01 BMatC= 9.28D-05 BMatP= 3.14D-03
 IDIUse=3 WtCom= 9.95D-01 WtEn= 5.31D-03
 Coeff-Com: -0.424D-02-0.190D-02 0.949D-01 0.911D+00
 Coeff-En:   0.000D+00 0.000D+00 0.000D+00 0.100D+01
 Coeff:     -0.421D-02-0.189D-02 0.944D-01 0.912D+00
 Gap=     0.499 Goal=   None    Shift=    0.000
 RMSDP=7.39D-05 MaxDP=1.49D-03 DE=-3.63D-03 OVMax= 3.14D-03

 Cycle   5  Pass 1  IDiag  1:
 E= -389.155188821085     Delta-E=       -0.000124313494 Rises=F Damp=F
 DIIS: error= 1.63D-04 at cycle   5 NSaved=   5.
 NSaved= 5 IEnMin= 5 EnMin= -389.155188821085     IErMin= 5 ErrMin= 1.63D-04
 ErrMax= 1.63D-04  0.00D+00 EMaxC= 1.00D-01 BMatC= 1.60D-05 BMatP= 9.28D-05
 IDIUse=3 WtCom= 9.98D-01 WtEn= 1.63D-03
 Coeff-Com:  0.241D-02-0.152D-01-0.102D+00 0.176D+00 0.939D+00
 Coeff-En:   0.000D+00 0.000D+00 0.000D+00 0.000D+00 0.100D+01
 Coeff:      0.241D-02-0.152D-01-0.102D+00 0.175D+00 0.939D+00
 Gap=     0.500 Goal=   None    Shift=    0.000
 RMSDP=3.00D-05 MaxDP=6.56D-04 DE=-1.24D-04 OVMax= 9.23D-04

 Cycle   6  Pass 1  IDiag  1:
 E= -389.155210298879     Delta-E=       -0.000021477794 Rises=F Damp=F
 DIIS: error= 3.58D-05 at cycle   6 NSaved=   6.
 NSaved= 6 IEnMin= 6 EnMin= -389.155210298879     IErMin= 6 ErrMin= 3.58D-05
 ErrMax= 3.58D-05  0.00D+00 EMaxC= 1.00D-01 BMatC= 5.50D-07 BMatP= 1.60D-05
 IDIUse=1 WtCom= 1.00D+00 WtEn= 0.00D+00
 Coeff-Com:  0.720D-03-0.335D-02-0.261D-01-0.433D-02 0.177D+00 0.856D+00
 Coeff:      0.720D-03-0.335D-02-0.261D-01-0.433D-02 0.177D+00 0.856D+00
 Gap=     0.500 Goal=   None    Shift=    0.000
 RMSDP=5.30D-06 MaxDP=1.61D-04 DE=-2.15D-05 OVMax= 3.23D-04

 Cycle   7  Pass 1  IDiag  1:
 E= -389.155211139801     Delta-E=       -0.000000840922 Rises=F Damp=F
 DIIS: error= 1.03D-05 at cycle   7 NSaved=   7.
 NSaved= 7 IEnMin= 7 EnMin= -389.155211139801     IErMin= 7 ErrMin= 1.03D-05
 ErrMax= 1.03D-05  0.00D+00 EMaxC= 1.00D-01 BMatC= 5.44D-08 BMatP= 5.50D-07
 IDIUse=1 WtCom= 1.00D+00 WtEn= 0.00D+00
 Coeff-Com: -0.494D-04 0.463D-03 0.301D-02-0.105D-01-0.468D-01 0.145D+00
 Coeff-Com:  0.909D+00
 Coeff:     -0.494D-04 0.463D-03 0.301D-02-0.105D-01-0.468D-01 0.145D+00
 Coeff:      0.909D+00
 Gap=     0.500 Goal=   None    Shift=    0.000
 RMSDP=1.71D-06 MaxDP=4.10D-05 DE=-8.41D-07 OVMax= 8.41D-05

 Cycle   8  Pass 1  IDiag  1:
 E= -389.155211228718     Delta-E=       -0.000000088917 Rises=F Damp=F
 DIIS: error= 3.51D-06 at cycle   8 NSaved=   8.
 NSaved= 8 IEnMin= 8 EnMin= -389.155211228718     IErMin= 8 ErrMin= 3.51D-06
 ErrMax= 3.51D-06  0.00D+00 EMaxC= 1.00D-01 BMatC= 5.10D-09 BMatP= 5.44D-08
 IDIUse=1 WtCom= 1.00D+00 WtEn= 0.00D+00
 Coeff-Com: -0.581D-04 0.249D-03 0.208D-02 0.315D-02-0.171D-01-0.803D-01
 Coeff-Com: -0.123D+00 0.121D+01
 Coeff:     -0.581D-04 0.249D-03 0.208D-02 0.315D-02-0.171D-01-0.803D-01
 Coeff:     -0.123D+00 0.121D+01
 Gap=     0.500 Goal=   None    Shift=    0.000
 RMSDP=7.85D-07 MaxDP=2.40D-05 DE=-8.89D-08 OVMax= 5.81D-05

 Cycle   9  Pass 1  IDiag  1:
 E= -389.155211244594     Delta-E=       -0.000000015876 Rises=F Damp=F
 DIIS: error= 1.46D-06 at cycle   9 NSaved=   9.
 NSaved= 9 IEnMin= 9 EnMin= -389.155211244594     IErMin= 9 ErrMin= 1.46D-06
 ErrMax= 1.46D-06  0.00D+00 EMaxC= 1.00D-01 BMatC= 7.39D-10 BMatP= 5.10D-09
 IDIUse=1 WtCom= 1.00D+00 WtEn= 0.00D+00
 Coeff-Com:  0.929D-05-0.690D-04-0.480D-03 0.144D-02 0.385D-02 0.103D-03
 Coeff-Com: -0.865D-01-0.120D+00 0.120D+01
 Coeff:      0.929D-05-0.690D-04-0.480D-03 0.144D-02 0.385D-02 0.103D-03
 Coeff:     -0.865D-01-0.120D+00 0.120D+01
 Gap=     0.500 Goal=   None    Shift=    0.000
 RMSDP=2.99D-07 MaxDP=1.24D-05 DE=-1.59D-08 OVMax= 2.71D-05

 Cycle  10  Pass 1  IDiag  1:
 E= -389.155211246999     Delta-E=       -0.000000002404 Rises=F Damp=F
 DIIS: error= 3.97D-07 at cycle  10 NSaved=  10.
 NSaved=10 IEnMin=10 EnMin= -389.155211246999     IErMin=10 ErrMin= 3.97D-07
 ErrMax= 3.97D-07  0.00D+00 EMaxC= 1.00D-01 BMatC= 1.21D-10 BMatP= 7.39D-10
 IDIUse=1 WtCom= 1.00D+00 WtEn= 0.00D+00
 Coeff-Com:  0.952D-05-0.464D-04-0.369D-03-0.135D-03 0.233D-02 0.142D-01
 Coeff-Com:  0.596D-02-0.211D+00 0.143D+00 0.105D+01
 Coeff:      0.952D-05-0.464D-04-0.369D-03-0.135D-03 0.233D-02 0.142D-01
 Coeff:      0.596D-02-0.211D+00 0.143D+00 0.105D+01
 Gap=     0.500 Goal=   None    Shift=    0.000
 RMSDP=1.24D-07 MaxDP=3.06D-06 DE=-2.40D-09 OVMax= 9.88D-06

 Cycle  11  Pass 1  IDiag  1:
 E= -389.155211247325     Delta-E=       -0.000000000326 Rises=F Damp=F
 DIIS: error= 1.55D-07 at cycle  11 NSaved=  11.
 NSaved=11 IEnMin=11 EnMin= -389.155211247325     IErMin=11 ErrMin= 1.55D-07
 ErrMax= 1.55D-07  0.00D+00 EMaxC= 1.00D-01 BMatC= 9.54D-12 BMatP= 1.21D-10
 IDIUse=1 WtCom= 1.00D+00 WtEn= 0.00D+00
 Coeff-Com:  0.394D-06 0.841D-06 0.103D-05-0.149D-03-0.305D-03 0.278D-02
 Coeff-Com:  0.110D-01-0.153D-01-0.107D+00 0.164D+00 0.945D+00
 Coeff:      0.394D-06 0.841D-06 0.103D-05-0.149D-03-0.305D-03 0.278D-02
 Coeff:      0.110D-01-0.153D-01-0.107D+00 0.164D+00 0.945D+00
 Gap=     0.500 Goal=   None    Shift=    0.000
 RMSDP=2.76D-08 MaxDP=1.16D-06 DE=-3.26D-10 OVMax= 2.51D-06

 Cycle  12  Pass 1  IDiag  1:
 E= -389.155211247349     Delta-E=       -0.000000000024 Rises=F Damp=F
 DIIS: error= 3.64D-08 at cycle  12 NSaved=  12.
 NSaved=12 IEnMin=12 EnMin= -389.155211247349     IErMin=12 ErrMin= 3.64D-08
 ErrMax= 3.64D-08  0.00D+00 EMaxC= 1.00D-01 BMatC= 1.17D-12 BMatP= 9.54D-12
 IDIUse=1 WtCom= 1.00D+00 WtEn= 0.00D+00
 Coeff-Com: -0.102D-05 0.547D-05 0.429D-04 0.323D-05-0.343D-03-0.126D-02
 Coeff-Com:  0.366D-03 0.217D-01-0.321D-01-0.113D+00 0.983D-01 0.103D+01
 Coeff:     -0.102D-05 0.547D-05 0.429D-04 0.323D-05-0.343D-03-0.126D-02
 Coeff:      0.366D-03 0.217D-01-0.321D-01-0.113D+00 0.983D-01 0.103D+01
 Gap=     0.500 Goal=   None    Shift=    0.000
 RMSDP=1.18D-08 MaxDP=3.33D-07 DE=-2.42D-11 OVMax= 8.46D-07

 Cycle  13  Pass 1  IDiag  1:
 E= -389.155211247357     Delta-E=       -0.000000000009 Rises=F Damp=F
 DIIS: error= 1.06D-08 at cycle  13 NSaved=  13.
 NSaved=13 IEnMin=13 EnMin= -389.155211247357     IErMin=13 ErrMin= 1.06D-08
 ErrMax= 1.06D-08  0.00D+00 EMaxC= 1.00D-01 BMatC= 5.47D-14 BMatP= 1.17D-12
 IDIUse=1 WtCom= 1.00D+00 WtEn= 0.00D+00
 Coeff-Com: -0.122D-06 0.462D-06 0.389D-05 0.136D-04-0.170D-04-0.298D-03
 Coeff-Com: -0.849D-03 0.352D-02 0.516D-02-0.213D-01-0.612D-01 0.111D+00
 Coeff-Com:  0.964D+00
 Coeff:     -0.122D-06 0.462D-06 0.389D-05 0.136D-04-0.170D-04-0.298D-03
 Coeff:     -0.849D-03 0.352D-02 0.516D-02-0.213D-01-0.612D-01 0.111D+00
 Coeff:      0.964D+00
 Gap=     0.500 Goal=   None    Shift=    0.000
 RMSDP=2.13D-09 MaxDP=7.03D-08 DE=-8.53D-12 OVMax= 1.05D-07

 SCF Done:  E(RHF) =  -389.155211247     A.U. after   13 cycles
            NFock= 13  Conv=0.21D-08     -V/T= 2.0014
 KE= 3.886263440633D+02 PE=-1.937508323172D+03 EE= 6.432896751058D+02
 Leave Link  502 at Fri Sep 17 14:50:57 2021, MaxMem=   524288000 cpu:              32.0 elap:              32.1
 (Enter /opt/gaussian/g16_legacy/l801.exe)
 ExpMin= 1.61D-01 ExpMax= 3.05D+03 ExpMxC= 4.57D+02 IAcc=3 IRadAn=         5 AccDes= 0.00D+00
 HarFok:  IExCor=  205 AccDes= 0.00D+00 IRadAn=         5 IDoV=-2 UseB2=F ITyADJ=14
 ICtDFT= 12500011 ScaDFX=  1.000000  1.000000  1.000000  1.000000
 Largest valence mixing into a core orbital is  1.98D-04
 Largest core mixing into a valence orbital is  3.52D-05
 Range of M.O.s used for correlation:    11   240
 NBasis=   240 NAE=    39 NBE=    39 NFC=    10 NFV=     0
 NROrb=    230 NOA=    29 NOB=    29 NVA=   201 NVB=   201
 Leave Link  801 at Fri Sep 17 14:50:59 2021, MaxMem=   524288000 cpu:               1.7 elap:               1.7
 (Enter /opt/gaussian/g16_legacy/l906.exe)
 Frozen-core derivative calculation, NFC=  10 NFV=   0.
 FulOut=F Deriv=T AODrv=T NAtomX=    28
   MMem=          88  MDisk=          29 MDiskD=          29
  W3Min=     2246400 MinDsk=     2795480 NBas6D=         240
 NBas2D=       29244    NTT=       28920    LW2=     2040000
    MDV=   523626386 MDiskM=       30186 NBas2p=       24383
 Fully direct method using O(ONN) memory.
 IMap=   1   2   3   4   5   6   7   8   9  10  11  12  13  14  15  16  17  18  19  20
 IMap=  21  22  23  24  25  26  27  28  29  30  31  32  33  34  35  36  37  38  39
 JobTyp=1 Pass  1:  I=  11 to  39 NPSUse=  1 ParTrn=F ParDer=F DoDerP=T.
 Spin components of T(2) and E(2):
     alpha-alpha T2 =       0.5715136615D-01 E2=     -0.1638031574D+00
     alpha-beta  T2 =       0.3618122864D+00 E2=     -0.1089336049D+01
     beta-beta   T2 =       0.5715136615D-01 E2=     -0.1638031574D+00
 The integrals were generated   1 times.
 ANorm=    0.1214954739D+01
 E2 =    -0.1416942364D+01 EUMP2 =    -0.39057215361164D+03
 Leave Link  906 at Fri Sep 17 14:55:10 2021, MaxMem=   524288000 cpu:             249.9 elap:             250.7
 (Enter /opt/gaussian/g16_legacy/l1002.exe)
 Minotr:  Closed shell wavefunction.
          Computing MP2/KS-MP2 derivatives.
          Using Z-Vector for PSCF gradient.
          Skipping F1 and S1 gradient terms here.
          IDoAtm=1111111111111111111111111111
          Frozen-core window.
          Direct CPHF calculation.
          Differentiating once with respect to electric field.
                with respect to dipole field.
          Differentiating once with respect to nuclear coordinates.
          Requested convergence is 1.0D-10 RMS, and 1.0D-09 maximum.
          NewPWx=F KeepS1=T KeepF1=T KeepIn=T MapXYZ=F SortEE=F KeepMc=T.
 Keep R1 ints in memory in canonical form, NReq=425201067.
 FoFCou: FMM=F IPFlag=           0 FMFlag=           0 FMFlg1=           0
         NFxFlg=           0 DoJE=F BraDBF=F KetDBF=F FulRan=T
         wScrn=  0.000000 ICntrl=       600 IOpCl=  0 I1Cent=           0 NGrid=           0
         NMat0=    1 NMatS0=  28920 NMatT0=    0 NMatD0=    1 NMtDS0=    0 NMtDT0=    0
 Symmetry not used in FoFCou.
 Two-electron integral symmetry not used.
          MDV=     524288000 using IRadAn=       5.
          Solving linear equations separately, MaxMat=       0.
          There are     1 degrees of freedom in the 1st order CPHF.  IDoFFX=0 NUNeed=     1.
 LinEq1:  Iter=  0 NonCon=     1 RMS=2.55D-03 Max=3.76D-02 NDo=     1
 AX will form     1 AO Fock derivatives at one time.
 LinEq1:  Iter=  1 NonCon=     1 RMS=6.90D-04 Max=9.74D-03 NDo=     1
 LinEq1:  Iter=  2 NonCon=     1 RMS=1.61D-04 Max=4.14D-03 NDo=     1
 LinEq1:  Iter=  3 NonCon=     1 RMS=4.31D-05 Max=5.08D-04 NDo=     1
 LinEq1:  Iter=  4 NonCon=     1 RMS=1.99D-05 Max=8.55D-04 NDo=     1
 LinEq1:  Iter=  5 NonCon=     1 RMS=5.06D-06 Max=8.27D-05 NDo=     1
 LinEq1:  Iter=  6 NonCon=     1 RMS=1.63D-06 Max=2.68D-05 NDo=     1
 LinEq1:  Iter=  7 NonCon=     1 RMS=4.13D-07 Max=4.19D-06 NDo=     1
 LinEq1:  Iter=  8 NonCon=     1 RMS=1.01D-07 Max=1.86D-06 NDo=     1
 LinEq1:  Iter=  9 NonCon=     1 RMS=2.33D-08 Max=6.32D-07 NDo=     1
 LinEq1:  Iter= 10 NonCon=     1 RMS=6.41D-09 Max=1.62D-07 NDo=     1
 LinEq1:  Iter= 11 NonCon=     1 RMS=1.89D-09 Max=3.62D-08 NDo=     1
 LinEq1:  Iter= 12 NonCon=     1 RMS=4.08D-10 Max=6.27D-09 NDo=     1
 LinEq1:  Iter= 13 NonCon=     1 RMS=1.01D-10 Max=1.19D-09 NDo=     1
 LinEq1:  Iter= 14 NonCon=     1 RMS=3.45D-11 Max=1.06D-09 NDo=     1
 LinEq1:  Iter= 15 NonCon=     0 RMS=1.01D-11 Max=1.47D-10 NDo=     1
 Linear equations converged to 1.000D-10 1.000D-09 after    15 iterations.
 End of Minotr F.D. properties file   721 does not exist.
 End of Minotr F.D. properties file   722 does not exist.
 End of Minotr F.D. properties file   788 does not exist.
 Leave Link 1002 at Fri Sep 17 14:55:51 2021, MaxMem=   524288000 cpu:              40.7 elap:              40.9
 (Enter /opt/gaussian/g16_legacy/l601.exe)
 Copying SCF densities to generalized density rwf, IOpCl= 0 IROHF=0.

 **********************************************************************

            Population analysis using the SCF density.

 **********************************************************************

 Orbital symmetries:
       Occupied  (A) (A) (A) (A) (A) (A) (A) (A) (A) (A) (A) (A)
                 (A) (A) (A) (A) (A) (A) (A) (A) (A) (A) (A) (A)
                 (A) (A) (A) (A) (A) (A) (A) (A) (A) (A) (A) (A)
                 (A) (A) (A)
       Virtual   (A) (A) (A) (A) (A) (A) (A) (A) (A) (A) (A) (A)
                 (A) (A) (A) (A) (A) (A) (A) (A) (A) (A) (A) (A)
                 (A) (A) (A) (A) (A) (A) (A) (A) (A) (A) (A) (A)
                 (A) (A) (A) (A) (A) (A) (A) (A) (A) (A) (A) (A)
                 (A) (A) (A) (A) (A) (A) (A) (A) (A) (A) (A) (A)
                 (A) (A) (A) (A) (A) (A) (A) (A) (A) (A) (A) (A)
                 (A) (A) (A) (A) (A) (A) (A) (A) (A) (A) (A) (A)
                 (A) (A) (A) (A) (A) (A) (A) (A) (A) (A) (A) (A)
                 (A) (A) (A) (A) (A) (A) (A) (A) (A) (A) (A) (A)
                 (A) (A) (A) (A) (A) (A) (A) (A) (A) (A) (A) (A)
                 (A) (A) (A) (A) (A) (A) (A) (A) (A) (A) (A) (A)
                 (A) (A) (A) (A) (A) (A) (A) (A) (A) (A) (A) (A)
                 (A) (A) (A) (A) (A) (A) (A) (A) (A) (A) (A) (A)
                 (A) (A) (A) (A) (A) (A) (A) (A) (A) (A) (A) (A)
                 (A) (A) (A) (A) (A) (A) (A) (A) (A) (A) (A) (A)
                 (A) (A) (A) (A) (A) (A) (A) (A) (A) (A) (A) (A)
                 (A) (A) (A) (A) (A) (A) (A) (A) (A)
 The electronic state is 1-A.
 Alpha  occ. eigenvalues --  -11.23059 -11.22505 -11.21999 -11.21920 -11.21883
 Alpha  occ. eigenvalues --  -11.21649 -11.21554 -11.21484 -11.21456 -11.21437
 Alpha  occ. eigenvalues --   -1.10623  -1.08328  -1.01911  -0.98014  -0.93647
 Alpha  occ. eigenvalues --   -0.91776  -0.86755  -0.82686  -0.70598  -0.69342
 Alpha  occ. eigenvalues --   -0.64585  -0.61545  -0.60102  -0.59030  -0.58088
 Alpha  occ. eigenvalues --   -0.56804  -0.55368  -0.55150  -0.53548  -0.51980
 Alpha  occ. eigenvalues --   -0.51715  -0.51320  -0.50593  -0.49230  -0.48276
 Alpha  occ. eigenvalues --   -0.46015  -0.44273  -0.33356  -0.31525
 Alpha virt. eigenvalues --    0.18455   0.19494   0.22038   0.24454   0.25183
 Alpha virt. eigenvalues --    0.27142   0.28395   0.28931   0.30249   0.30505
 Alpha virt. eigenvalues --    0.31238   0.32117   0.33136   0.33436   0.34031
 Alpha virt. eigenvalues --    0.35677   0.35774   0.36970   0.38999   0.40648
 Alpha virt. eigenvalues --    0.41065   0.42593   0.43321   0.44193   0.45151
 Alpha virt. eigenvalues --    0.51684   0.54046   0.61173   0.62446   0.70138
 Alpha virt. eigenvalues --    0.71101   0.71887   0.74279   0.76417   0.76616
 Alpha virt. eigenvalues --    0.76877   0.78796   0.79454   0.81139   0.82036
 Alpha virt. eigenvalues --    0.83812   0.85655   0.88078   0.91266   0.92027
 Alpha virt. eigenvalues --    0.92894   0.95178   0.97058   0.98263   0.99207
 Alpha virt. eigenvalues --    0.99750   1.00204   1.02303   1.03925   1.06183
 Alpha virt. eigenvalues --    1.07864   1.08640   1.08810   1.11199   1.12390
 Alpha virt. eigenvalues --    1.12561   1.13431   1.14584   1.14926   1.15820
 Alpha virt. eigenvalues --    1.16164   1.16402   1.18224   1.18706   1.20093
 Alpha virt. eigenvalues --    1.20664   1.22068   1.22855   1.25019   1.27542
 Alpha virt. eigenvalues --    1.34169   1.40672   1.41850   1.43739   1.45171
 Alpha virt. eigenvalues --    1.47558   1.53478   1.56256   1.56979   1.58246
 Alpha virt. eigenvalues --    1.59852   1.62720   1.65798   1.69519   1.70788
 Alpha virt. eigenvalues --    1.75332   1.82527   1.92036   1.92196   1.95500
 Alpha virt. eigenvalues --    1.98630   2.01127   2.02848   2.04184   2.08701
 Alpha virt. eigenvalues --    2.09245   2.11123   2.11379   2.13102   2.14507
 Alpha virt. eigenvalues --    2.15427   2.17689   2.19723   2.23577   2.27383
 Alpha virt. eigenvalues --    2.28339   2.29997   2.32202   2.34976   2.35569
 Alpha virt. eigenvalues --    2.35647   2.35783   2.39325   2.39853   2.40352
 Alpha virt. eigenvalues --    2.41287   2.41831   2.43036   2.45163   2.45390
 Alpha virt. eigenvalues --    2.47033   2.48342   2.49338   2.50339   2.54525
 Alpha virt. eigenvalues --    2.56587   2.57723   2.61275   2.62185   2.64356
 Alpha virt. eigenvalues --    2.66341   2.67159   2.72033   2.72994   2.73745
 Alpha virt. eigenvalues --    2.75718   2.77699   2.81093   2.82803   2.85158
 Alpha virt. eigenvalues --    2.87731   2.89154   2.91918   2.93444   2.94437
 Alpha virt. eigenvalues --    2.97093   2.99039   3.01164   3.02604   3.05103
 Alpha virt. eigenvalues --    3.05825   3.06634   3.08510   3.13018   3.15942
 Alpha virt. eigenvalues --    3.17138   3.18166   3.19617   3.20681   3.21267
 Alpha virt. eigenvalues --    3.23194   3.24417   3.26467   3.27247   3.36668
 Alpha virt. eigenvalues --    3.39077   3.44609   3.45620   3.55552   3.57295
 Alpha virt. eigenvalues --    3.58702   3.61058   3.66892   3.73958   3.78202
 Alpha virt. eigenvalues --    3.78871   3.80515   3.81327   3.82334   3.82839
 Alpha virt. eigenvalues --    3.84212   3.85753   3.87658   3.89511   3.91176
 Alpha virt. eigenvalues --    3.95900   4.59096   4.62634   4.74428   4.82815
 Alpha virt. eigenvalues --    4.88838   4.92668   4.93352   5.07551   5.10288
 Alpha virt. eigenvalues --    5.16869
          Condensed to atoms (all electrons):
               1          2          3          4          5          6
     1  C    5.001780   0.412355   0.413506   0.340295  -0.058750   0.003676
     2  H    0.412355   0.571661  -0.030223  -0.040525   0.003238  -0.000103
     3  H    0.413506  -0.030223   0.588496  -0.045055  -0.004692   0.000081
     4  C    0.340295  -0.040525  -0.045055   4.955055   0.349341  -0.041413
     5  C   -0.058750   0.003238  -0.004692   0.349341   4.896452   0.406178
     6  H    0.003676  -0.000103   0.000081  -0.041413   0.406178   0.571042
     7  H   -0.003554  -0.000016   0.002571  -0.043064   0.397375  -0.027611
     8  H   -0.000531  -0.000030  -0.000276  -0.045805   0.400288  -0.028078
     9  C   -0.044047  -0.002232   0.001919   0.698835  -0.045930  -0.002738
    10  H    0.003079   0.000060  -0.000114  -0.036532  -0.006481   0.002223
    11  C   -0.007061  -0.002134   0.000138  -0.050682   0.003424   0.000137
    12  H    0.000227   0.000172   0.000028  -0.001413  -0.000116  -0.000004
    13  H   -0.001828  -0.001334   0.000004  -0.000419   0.000092   0.000004
    14  H    0.000232  -0.000034  -0.000010   0.000594  -0.000100  -0.000009
    15  C   -0.000101  -0.000042  -0.000000   0.000002  -0.000000   0.000000
    16  H   -0.000004   0.000001   0.000000   0.000000  -0.000000   0.000000
    17  H   -0.000003  -0.000002   0.000002   0.000000  -0.000000   0.000000
    18  H    0.000022  -0.000005  -0.000001  -0.000000   0.000000  -0.000000
    19  C   -0.003608   0.001046   0.000615   0.000006  -0.000002   0.000000
    20  C    0.000597   0.000160  -0.000016  -0.000017  -0.000000  -0.000000
    21  H   -0.000053  -0.000052  -0.000012  -0.000027  -0.000000   0.000000
    22  H    0.000077  -0.000076  -0.000001  -0.000002   0.000000  -0.000000
    23  H   -0.000041   0.000014   0.000000   0.000001  -0.000000   0.000000
    24  C   -0.063061  -0.000806  -0.000609   0.006129  -0.000158   0.000003
    25  H    0.000004   0.000213   0.001004  -0.000155   0.000010  -0.000000
    26  C    0.326238  -0.039856  -0.044606  -0.057361  -0.000187  -0.000097
    27  H   -0.045123   0.004290  -0.002603  -0.001850  -0.000392  -0.000025
    28  H   -0.040294  -0.002144   0.004203  -0.001437   0.000317  -0.000010
               7          8          9         10         11         12
     1  C   -0.003554  -0.000531  -0.044047   0.003079  -0.007061   0.000227
     2  H   -0.000016  -0.000030  -0.002232   0.000060  -0.002134   0.000172
     3  H    0.002571  -0.000276   0.001919  -0.000114   0.000138   0.000028
     4  C   -0.043064  -0.045805   0.698835  -0.036532  -0.050682  -0.001413
     5  C    0.397375   0.400288  -0.045930  -0.006481   0.003424  -0.000116
     6  H   -0.027611  -0.028078  -0.002738   0.002223   0.000137  -0.000004
     7  H    0.593643  -0.035018  -0.000425   0.000248  -0.000114   0.000021
     8  H   -0.035018   0.594745  -0.001035   0.000123  -0.000100  -0.000005
     9  C   -0.000425  -0.001035   4.939983   0.404869   0.337721  -0.044357
    10  H    0.000248   0.000123   0.404869   0.559367  -0.043639  -0.000222
    11  C   -0.000114  -0.000100   0.337721  -0.043639   4.906193   0.400034
    12  H    0.000021  -0.000005  -0.044357  -0.000222   0.400034   0.584237
    13  H   -0.000001   0.000000  -0.041944   0.003316   0.408019  -0.026857
    14  H   -0.000004   0.000015  -0.042846  -0.002647   0.403015  -0.033274
    15  C   -0.000000  -0.000000  -0.000000   0.000000  -0.000000   0.000000
    16  H    0.000000   0.000000   0.000000   0.000000  -0.000000   0.000000
    17  H   -0.000000  -0.000000  -0.000000   0.000000   0.000000  -0.000000
    18  H   -0.000000   0.000000  -0.000000  -0.000000   0.000000  -0.000000
    19  C    0.000000   0.000000   0.000001   0.000000   0.000007  -0.000000
    20  C   -0.000000  -0.000000   0.000010  -0.000000  -0.000097   0.000002
    21  H   -0.000000   0.000000  -0.000032   0.000000   0.000040  -0.000008
    22  H   -0.000000   0.000000   0.000000  -0.000000  -0.000003  -0.000000
    23  H    0.000000   0.000000   0.000000   0.000000   0.000002   0.000000
    24  C    0.000000  -0.000086   0.000070   0.000002  -0.000032   0.000002
    25  H   -0.000002   0.000012  -0.000002  -0.000000   0.000000   0.000000
    26  C    0.000027   0.000810  -0.004367  -0.000116   0.000690  -0.000050
    27  H    0.000093  -0.000187   0.000514   0.000004  -0.000030  -0.000000
    28  H    0.000012  -0.000009   0.001216  -0.000044   0.000070   0.000023
              13         14         15         16         17         18
     1  C   -0.001828   0.000232  -0.000101  -0.000004  -0.000003   0.000022
     2  H   -0.001334  -0.000034  -0.000042   0.000001  -0.000002  -0.000005
     3  H    0.000004  -0.000010  -0.000000   0.000000   0.000002  -0.000001
     4  C   -0.000419   0.000594   0.000002   0.000000   0.000000  -0.000000
     5  C    0.000092  -0.000100  -0.000000  -0.000000  -0.000000   0.000000
     6  H    0.000004  -0.000009   0.000000   0.000000   0.000000  -0.000000
     7  H   -0.000001  -0.000004  -0.000000   0.000000  -0.000000  -0.000000
     8  H    0.000000   0.000015  -0.000000   0.000000  -0.000000   0.000000
     9  C   -0.041944  -0.042846  -0.000000   0.000000  -0.000000  -0.000000
    10  H    0.003316  -0.002647   0.000000   0.000000   0.000000  -0.000000
    11  C    0.408019   0.403015  -0.000000  -0.000000   0.000000   0.000000
    12  H   -0.026857  -0.033274   0.000000   0.000000  -0.000000  -0.000000
    13  H    0.573912  -0.030014   0.000000  -0.000000  -0.000000  -0.000000
    14  H   -0.030014   0.586771  -0.000000  -0.000000  -0.000000   0.000000
    15  C    0.000000  -0.000000   4.903240   0.399263   0.405433   0.396990
    16  H   -0.000000  -0.000000   0.399263   0.593083  -0.027563  -0.034905
    17  H   -0.000000  -0.000000   0.405433  -0.027563   0.568015  -0.027373
    18  H   -0.000000   0.000000   0.396990  -0.034905  -0.027373   0.594313
    19  C   -0.000013   0.000000   0.352288  -0.045766  -0.040392  -0.044302
    20  C    0.000010  -0.000004  -0.065380  -0.001106   0.003695  -0.002140
    21  H    0.000571   0.000042   0.003678  -0.000023  -0.000108  -0.000072
    22  H    0.000034   0.000000  -0.003430  -0.000507   0.000010   0.002847
    23  H   -0.000006  -0.000000  -0.001685   0.002553  -0.000079  -0.000371
    24  C    0.000003  -0.000004  -0.044862  -0.001135  -0.002386  -0.000548
    25  H   -0.000001   0.000000  -0.006750   0.000150   0.002177   0.000235
    26  C   -0.000212   0.000091   0.003153  -0.000124   0.000146  -0.000086
    27  H   -0.000008   0.000000  -0.000102   0.000012  -0.000011  -0.000002
    28  H   -0.000251  -0.000079   0.000071   0.000004   0.000006  -0.000004
              19         20         21         22         23         24
     1  C   -0.003608   0.000597  -0.000053   0.000077  -0.000041  -0.063061
     2  H    0.001046   0.000160  -0.000052  -0.000076   0.000014  -0.000806
     3  H    0.000615  -0.000016  -0.000012  -0.000001   0.000000  -0.000609
     4  C    0.000006  -0.000017  -0.000027  -0.000002   0.000001   0.006129
     5  C   -0.000002  -0.000000  -0.000000   0.000000  -0.000000  -0.000158
     6  H    0.000000  -0.000000   0.000000  -0.000000   0.000000   0.000003
     7  H    0.000000  -0.000000  -0.000000  -0.000000   0.000000   0.000000
     8  H    0.000000  -0.000000   0.000000   0.000000   0.000000  -0.000086
     9  C    0.000001   0.000010  -0.000032   0.000000   0.000000   0.000070
    10  H    0.000000  -0.000000   0.000000  -0.000000   0.000000   0.000002
    11  C    0.000007  -0.000097   0.000040  -0.000003   0.000002  -0.000032
    12  H   -0.000000   0.000002  -0.000008  -0.000000   0.000000   0.000002
    13  H   -0.000013   0.000010   0.000571   0.000034  -0.000006   0.000003
    14  H    0.000000  -0.000004   0.000042   0.000000  -0.000000  -0.000004
    15  C    0.352288  -0.065380   0.003678  -0.003430  -0.001685  -0.044862
    16  H   -0.045766  -0.001106  -0.000023  -0.000507   0.002553  -0.001135
    17  H   -0.040392   0.003695  -0.000108   0.000010  -0.000079  -0.002386
    18  H   -0.044302  -0.002140  -0.000072   0.002847  -0.000371  -0.000548
    19  C    4.918184   0.348393  -0.037059  -0.043929  -0.043829   0.698194
    20  C    0.348393   4.909242   0.406150   0.402448   0.398270  -0.043326
    21  H   -0.037059   0.406150   0.568191  -0.030012  -0.026277  -0.002870
    22  H   -0.043929   0.402448  -0.030012   0.586187  -0.033099   0.000447
    23  H   -0.043829   0.398270  -0.026277  -0.033099   0.582542  -0.000842
    24  C    0.698194  -0.043326  -0.002870   0.000447  -0.000842   4.961509
    25  H   -0.036143   0.003366   0.000059  -0.000110  -0.000126   0.402012
    26  C   -0.048261  -0.007534  -0.001945   0.000286   0.000188   0.339915
    27  H    0.000914   0.000169   0.000031  -0.000012   0.000032  -0.043345
    28  H    0.000823  -0.002065  -0.001169  -0.000043   0.000056  -0.043826
              25         26         27         28
     1  C    0.000004   0.326238  -0.045123  -0.040294
     2  H    0.000213  -0.039856   0.004290  -0.002144
     3  H    0.001004  -0.044606  -0.002603   0.004203
     4  C   -0.000155  -0.057361  -0.001850  -0.001437
     5  C    0.000010  -0.000187  -0.000392   0.000317
     6  H   -0.000000  -0.000097  -0.000025  -0.000010
     7  H   -0.000002   0.000027   0.000093   0.000012
     8  H    0.000012   0.000810  -0.000187  -0.000009
     9  C   -0.000002  -0.004367   0.000514   0.001216
    10  H   -0.000000  -0.000116   0.000004  -0.000044
    11  C    0.000000   0.000690  -0.000030   0.000070
    12  H    0.000000  -0.000050  -0.000000   0.000023
    13  H   -0.000001  -0.000212  -0.000008  -0.000251
    14  H    0.000000   0.000091   0.000000  -0.000079
    15  C   -0.006750   0.003153  -0.000102   0.000071
    16  H    0.000150  -0.000124   0.000012   0.000004
    17  H    0.002177   0.000146  -0.000011   0.000006
    18  H    0.000235  -0.000086  -0.000002  -0.000004
    19  C   -0.036143  -0.048261   0.000914   0.000823
    20  C    0.003366  -0.007534   0.000169  -0.002065
    21  H    0.000059  -0.001945   0.000031  -0.001169
    22  H   -0.000110   0.000286  -0.000012  -0.000043
    23  H   -0.000126   0.000188   0.000032   0.000056
    24  C    0.402012   0.339915  -0.043345  -0.043826
    25  H    0.558541  -0.041277  -0.003486   0.003231
    26  C   -0.041277   4.982324   0.413774   0.414873
    27  H   -0.003486   0.413774   0.588468  -0.029599
    28  H    0.003231   0.414873  -0.029599   0.571257
 Mulliken charges:
               1
     1  C   -0.234027
     2  H    0.126404
     3  H    0.115652
     4  C    0.015499
     5  C   -0.339907
     6  H    0.116744
     7  H    0.115818
     8  H    0.115164
     9  C   -0.155182
    10  H    0.116502
    11  C   -0.355598
    12  H    0.121560
    13  H    0.116924
    14  H    0.118264
    15  C   -0.341764
    16  H    0.116067
    17  H    0.118432
    18  H    0.115403
    19  C    0.022832
    20  C   -0.350825
    21  H    0.120958
    22  H    0.118888
    23  H    0.122698
    24  C   -0.160392
    25  H    0.117040
    26  C   -0.236438
    27  H    0.118475
    28  H    0.124812
 Sum of Mulliken charges =  -0.00000
 Mulliken charges with hydrogens summed into heavy atoms:
               1
     1  C    0.008028
     4  C    0.015499
     5  C    0.007819
     9  C   -0.038680
    11  C    0.001149
    15  C    0.008137
    19  C    0.022832
    20  C    0.011719
    24  C   -0.043352
    26  C    0.006848
 Electronic spatial extent (au):  <R**2>=           2423.6463
 Charge=             -0.0000 electrons
 Dipole moment (field-independent basis, Debye):
    X=             -0.2948    Y=              0.1262    Z=             -0.0059  Tot=              0.3207
 Quadrupole moment (field-independent basis, Debye-Ang):
   XX=            -64.5120   YY=            -63.6023   ZZ=            -67.0541
   XY=             -0.6105   XZ=             -0.8628   YZ=             -0.4851
 Traceless Quadrupole moment (field-independent basis, Debye-Ang):
   XX=              0.5441   YY=              1.4538   ZZ=             -1.9979
   XY=             -0.6105   XZ=             -0.8628   YZ=             -0.4851
 Octapole moment (field-independent basis, Debye-Ang**2):
  XXX=             -1.3698  YYY=             -2.7196  ZZZ=              0.1850  XYY=              0.5730
  XXY=              4.5352  XXZ=             -2.6505  XZZ=             -1.5763  YZZ=              1.2278
  YYZ=              1.3698  XYZ=              0.7529
 Hexadecapole moment (field-independent basis, Debye-Ang**3):
 XXXX=          -2492.2804 YYYY=           -696.1031 ZZZZ=           -174.8238 XXXY=              2.3521
 XXXZ=            -11.9366 YYYX=              9.3534 YYYZ=             -3.0504 ZZZX=              0.8354
 ZZZY=             -0.0635 XXYY=           -530.4587 XXZZ=           -456.3130 YYZZ=           -139.1701
 XXYZ=             -4.2428 YYXZ=             -3.1997 ZZXY=             -4.6967
 N-N= 5.164370927555D+02 E-N=-1.937508323284D+03  KE= 3.886263440633D+02
 No NMR shielding tensors so no spin-rotation constants.
 Leave Link  601 at Fri Sep 17 14:55:51 2021, MaxMem=   524288000 cpu:               0.3 elap:               0.3
 (Enter /opt/gaussian/g16_legacy/l701.exe)
 ... and contract with generalized density number  2.
 Compute integral first derivatives.
 Leave Link  701 at Fri Sep 17 14:55:51 2021, MaxMem=   524288000 cpu:               0.3 elap:               0.3
 (Enter /opt/gaussian/g16_legacy/l702.exe)
 L702 exits ... SP integral derivatives will be done elsewhere.
 Leave Link  702 at Fri Sep 17 14:55:51 2021, MaxMem=   524288000 cpu:               0.1 elap:               0.1
 (Enter /opt/gaussian/g16_legacy/l703.exe)
 Integral derivatives from FoFJK, PRISM(SPDF).
 Compute integral first derivatives, UseDBF=F ICtDFT=           0.
 Calling FoFJK, ICntrl=  10002127 FMM=F ISym2X=0 I1Cent= 0 IOpClX= 0 NMat=1 NMatS=1 NMatT=0.
 FoFJK:  IHMeth= 1 ICntrl=10002127 DoSepK=F KAlg= 0 I1Cent=           0 FoldK=F
 IRaf=         0 NMat=       1 IRICut=       1 DoRegI=T DoRafI=F ISym2E= 0 IDoP0=0 IntGTp=1.
 FoFCou: FMM=F IPFlag=           0 FMFlag=      100000 FMFlg1=         800
         NFxFlg=           0 DoJE=F BraDBF=F KetDBF=F FulRan=T
         wScrn=  0.000000 ICntrl=  10002127 IOpCl=  0 I1Cent=           0 NGrid=           0
         NMat0=    1 NMatS0=      1 NMatT0=    0 NMatD0=    1 NMtDS0=    0 NMtDT0=    0
 Symmetry not used in FoFCou.
 Leave Link  703 at Fri Sep 17 14:56:25 2021, MaxMem=   524288000 cpu:              34.0 elap:              34.0
 (Enter /opt/gaussian/g16_legacy/l716.exe)
 Dipole        =-9.11048243D-02 6.69191128D-02-4.74949368D-03
 ***** Axes restored to original set *****
 -------------------------------------------------------------------
 Center     Atomic                   Forces (Hartrees/Bohr)
 Number     Number              X              Y              Z
 -------------------------------------------------------------------
      1        6           0.007811078    0.001036511    0.005243366
      2        1          -0.000359257    0.001635783   -0.004340726
      3        1           0.000235618    0.002651197   -0.002700576
      4        6           0.003519872   -0.004502785    0.002958918
      5        6           0.003047110    0.000620732   -0.000747697
      6        1          -0.003667406    0.001282366    0.001279727
      7        1          -0.001154394    0.001368162   -0.002870835
      8        1           0.000162486   -0.002875581    0.001725127
      9        6          -0.002014160   -0.000014466   -0.003211397
     10        1          -0.002686748   -0.001988315   -0.001255047
     11        6          -0.001657525    0.001816267    0.001172267
     12        1          -0.001068946    0.003182990   -0.000709041
     13        1           0.002663812   -0.002015418   -0.000399677
     14        1          -0.000272071   -0.001528914    0.003057680
     15        6          -0.000496152   -0.003303070   -0.000506719
     16        1           0.000002444   -0.000481578    0.003325863
     17        1           0.002729686    0.003308952    0.000532658
     18        1          -0.001575989    0.001852425   -0.002553630
     19        6          -0.000153386   -0.005209830    0.001154710
     20        6           0.004494574    0.000970913   -0.000332478
     21        1          -0.002750660   -0.001548602   -0.001457489
     22        1          -0.001480936    0.000561863   -0.003289245
     23        1           0.000085232   -0.000008862    0.003143527
     24        6           0.001531711    0.001177820   -0.004879839
     25        1          -0.001475477    0.002403274    0.001943284
     26        6          -0.007250303    0.002259895   -0.002249453
     27        1           0.001743706   -0.000024446    0.002912151
     28        1           0.000036083   -0.002627284    0.003054571
 -------------------------------------------------------------------
 Cartesian Forces:  Max     0.007811078 RMS     0.002569852
 Leave Link  716 at Fri Sep 17 14:56:25 2021, MaxMem=   524288000 cpu:               0.1 elap:               0.1
 (Enter /opt/gaussian/g16_legacy/l103.exe)

 GradGradGradGradGradGradGradGradGradGradGradGradGradGradGradGradGradGrad
 Berny optimization.
 FormGI is forming the generalized inverse of G from B-inverse, IUseBI=4.
 Internal  Forces:  Max     0.004878875 RMS     0.001915553
 Search for a local minimum.
 Step number   1 out of a maximum of  138
 All quantities printed in internal units (Hartrees-Bohrs-Radians)
 RMS Force = .19156D-02 SwitMx=.10000D-02 MixMth= 1
 Mixed Optimization -- RFO/linear search
 Second derivative matrix not updated -- first step.
 ITU=  0
     Eigenvalues ---    0.00342   0.00570   0.00671   0.00680   0.00693
     Eigenvalues ---    0.00715   0.00818   0.01219   0.01287   0.01569
     Eigenvalues ---    0.01641   0.02779   0.02785   0.04018   0.04138
     Eigenvalues ---    0.05349   0.05399   0.06978   0.07036   0.07091
     Eigenvalues ---    0.07092   0.07268   0.07301   0.07347   0.07505
     Eigenvalues ---    0.09277   0.09361   0.12767   0.12842   0.15999
     Eigenvalues ---    0.15999   0.16000   0.16000   0.16000   0.16000
     Eigenvalues ---    0.16000   0.16000   0.16000   0.16000   0.16000
     Eigenvalues ---    0.16000   0.16000   0.16000   0.21859   0.21866
     Eigenvalues ---    0.22000   0.22000   0.24994   0.24997   0.24998
     Eigenvalues ---    0.24999   0.29236   0.30868   0.31635   0.31709
     Eigenvalues ---    0.31803   0.31975   0.32795   0.33868   0.33974
     Eigenvalues ---    0.34070   0.34198   0.34224   0.34234   0.34246
     Eigenvalues ---    0.34246   0.34248   0.34248   0.34264   0.34268
     Eigenvalues ---    0.34301   0.34338   0.34545   0.34553   0.34796
     Eigenvalues ---    0.34848   0.55488   0.55582
 RFO step:  Lambda=-2.95575207D-03 EMin= 3.42186328D-03
 Linear search not attempted -- first point.
 Iteration  1 RMS(Cart)=  0.03969368 RMS(Int)=  0.00072315
 Iteration  2 RMS(Cart)=  0.00093423 RMS(Int)=  0.00016597
 Iteration  3 RMS(Cart)=  0.00000043 RMS(Int)=  0.00016597
 ITry= 1 IFail=0 DXMaxC= 1.79D-01 DCOld= 1.00D+10 DXMaxT= 3.00D-01 DXLimC= 3.00D+00 Rises=F
 Variable       Old X    -DE/DX   Delta X   Delta X   Delta X     New X
                                 (Linear)    (Quad)   (Total)
    R1        2.07212  -0.00328   0.00000  -0.00953  -0.00953   2.06259
    R2        2.07553  -0.00277   0.00000  -0.00811  -0.00811   2.06742
    R3        2.86265  -0.00354   0.00000  -0.01137  -0.01137   2.85128
    R4        2.89513   0.00171   0.00000   0.00580   0.00580   2.90092
    R5        2.84816  -0.00044   0.00000  -0.00139  -0.00139   2.84677
    R6        2.54701  -0.00401   0.00000  -0.00719  -0.00719   2.53982
    R7        2.06954  -0.00370   0.00000  -0.01071  -0.01071   2.05883
    R8        2.06913  -0.00217   0.00000  -0.00627  -0.00627   2.06286
    R9        2.06825  -0.00177   0.00000  -0.00510  -0.00510   2.06315
   R10        2.05922  -0.00221   0.00000  -0.00630  -0.00630   2.05292
   R11        2.82714   0.00310   0.00000   0.00936   0.00936   2.83650
   R12        2.06764  -0.00156   0.00000  -0.00451  -0.00451   2.06313
   R13        2.06406  -0.00291   0.00000  -0.00834  -0.00834   2.05572
   R14        2.06880  -0.00255   0.00000  -0.00739  -0.00739   2.06140
   R15        2.06916  -0.00200   0.00000  -0.00580  -0.00580   2.06336
   R16        2.06937  -0.00392   0.00000  -0.01137  -0.01137   2.05800
   R17        2.06913  -0.00199   0.00000  -0.00576  -0.00576   2.06337
   R18        2.84680  -0.00076   0.00000  -0.00239  -0.00239   2.84441
   R19        2.84189  -0.00046   0.00000  -0.00142  -0.00142   2.84047
   R20        2.54618  -0.00321   0.00000  -0.00574  -0.00574   2.54044
   R21        2.06421  -0.00285   0.00000  -0.00819  -0.00819   2.05602
   R22        2.06997  -0.00262   0.00000  -0.00760  -0.00760   2.06238
   R23        2.06886  -0.00187   0.00000  -0.00540  -0.00540   2.06346
   R24        2.06007  -0.00198   0.00000  -0.00565  -0.00565   2.05442
   R25        2.84505  -0.00150   0.00000  -0.00468  -0.00468   2.84037
   R26        2.07373  -0.00237   0.00000  -0.00691  -0.00691   2.06682
   R27        2.06916  -0.00277   0.00000  -0.00803  -0.00803   2.06114
    A1        1.83003   0.00206   0.00000   0.02239   0.02223   1.85226
    A2        1.93016   0.00043   0.00000   0.00926   0.00929   1.93945
    A3        1.91833  -0.00277   0.00000  -0.02020  -0.02024   1.89809
    A4        1.90263  -0.00069   0.00000  -0.00272  -0.00271   1.89992
    A5        1.91996  -0.00194   0.00000  -0.01716  -0.01719   1.90277
    A6        1.95838   0.00283   0.00000   0.00909   0.00914   1.96752
    A7        2.00830   0.00238   0.00000   0.00969   0.00913   2.01743
    A8        2.17067  -0.00488   0.00000  -0.01893  -0.01946   2.15121
    A9        2.10403   0.00252   0.00000   0.01033   0.00975   2.11379
   A10        1.95923  -0.00261   0.00000  -0.01305  -0.01301   1.94621
   A11        1.92486   0.00165   0.00000   0.00896   0.00898   1.93384
   A12        1.92814   0.00226   0.00000   0.01208   0.01210   1.94024
   A13        1.87752   0.00110   0.00000   0.01022   0.01025   1.88777
   A14        1.87703   0.00055   0.00000   0.00562   0.00566   1.88269
   A15        1.89490  -0.00306   0.00000  -0.02466  -0.02466   1.87024
   A16        2.06966  -0.00194   0.00000  -0.01337  -0.01339   2.05627
   A17        2.22516  -0.00188   0.00000  -0.00841  -0.00842   2.21673
   A18        1.98824   0.00382   0.00000   0.02194   0.02192   2.01016
   A19        1.91725   0.00395   0.00000   0.02327   0.02324   1.94049
   A20        1.98118  -0.00299   0.00000  -0.01838  -0.01829   1.96289
   A21        1.91000   0.00238   0.00000   0.01562   0.01556   1.92557
   A22        1.89284  -0.00095   0.00000  -0.00760  -0.00750   1.88533
   A23        1.88723  -0.00310   0.00000  -0.01891  -0.01908   1.86815
   A24        1.87271   0.00052   0.00000   0.00491   0.00498   1.87770
   A25        1.87883   0.00092   0.00000   0.00792   0.00795   1.88678
   A26        1.89479  -0.00313   0.00000  -0.02536  -0.02535   1.86943
   A27        1.92348   0.00174   0.00000   0.00874   0.00877   1.93225
   A28        1.87913   0.00093   0.00000   0.00942   0.00945   1.88858
   A29        1.96065  -0.00277   0.00000  -0.01388  -0.01384   1.94681
   A30        1.92495   0.00220   0.00000   0.01233   0.01235   1.93730
   A31        1.99470   0.00146   0.00000   0.00580   0.00577   2.00048
   A32        2.10579   0.00183   0.00000   0.00728   0.00725   2.11304
   A33        2.18264  -0.00329   0.00000  -0.01296  -0.01298   2.16966
   A34        1.97976  -0.00223   0.00000  -0.01023  -0.01021   1.96954
   A35        1.92085  -0.00000   0.00000  -0.00092  -0.00090   1.91995
   A36        1.92160   0.00231   0.00000   0.01171   0.01174   1.93333
   A37        1.86370   0.00201   0.00000   0.01698   0.01699   1.88069
   A38        1.88438   0.00024   0.00000   0.00329   0.00332   1.88770
   A39        1.89066  -0.00240   0.00000  -0.02161  -0.02159   1.86907
   A40        2.06713  -0.00167   0.00000  -0.01182  -0.01222   2.05491
   A41        2.22720  -0.00226   0.00000  -0.00997  -0.01038   2.21681
   A42        1.98873   0.00395   0.00000   0.02259   0.02216   2.01089
   A43        1.94449   0.00330   0.00000   0.01365   0.01367   1.95816
   A44        1.92096  -0.00239   0.00000  -0.01484  -0.01503   1.90593
   A45        1.92600  -0.00264   0.00000  -0.02489  -0.02496   1.90104
   A46        1.88065   0.00061   0.00000   0.01702   0.01707   1.89772
   A47        1.94650  -0.00052   0.00000  -0.00233  -0.00228   1.94422
   A48        1.84191   0.00155   0.00000   0.01190   0.01163   1.85354
    D1        2.64279   0.00174   0.00000   0.05212   0.05190   2.69469
    D2       -0.47844   0.00076   0.00000  -0.01008  -0.00985  -0.48829
    D3        0.63956  -0.00058   0.00000   0.02162   0.02138   0.66093
    D4       -2.48167  -0.00156   0.00000  -0.04058  -0.04038  -2.52205
[...]
                 (A) (A) (A) (A) (A) (A) (A) (A) (A) (A) (A) (A)
                 (A) (A) (A) (A) (A) (A) (A) (A) (A) (A) (A) (A)
                 (A) (A) (A) (A) (A) (A) (A) (A) (A) (A) (A) (A)
                 (A) (A) (A) (A) (A) (A) (A) (A) (A) (A) (A) (A)
                 (A) (A) (A) (A) (A) (A) (A) (A) (A) (A) (A) (A)
                 (A) (A) (A) (A) (A) (A) (A) (A) (A) (A) (A) (A)
                 (A) (A) (A) (A) (A) (A) (A) (A) (A) (A) (A) (A)
                 (A) (A) (A) (A) (A) (A) (A) (A) (A) (A) (A) (A)
                 (A) (A) (A) (A) (A) (A) (A) (A) (A) (A) (A) (A)
                 (A) (A) (A) (A) (A) (A) (A) (A) (A) (A) (A) (A)
                 (A) (A) (A) (A) (A) (A) (A) (A) (A) (A) (A) (A)
                 (A) (A) (A) (A) (A) (A) (A) (A) (A) (A) (A) (A)
                 (A) (A) (A) (A) (A) (A) (A) (A) (A) (A) (A) (A)
                 (A) (A) (A) (A) (A) (A) (A) (A) (A) (A) (A) (A)
                 (A) (A) (A) (A) (A) (A) (A) (A) (A)
 The electronic state is 1-A.
 Alpha  occ. eigenvalues --  -11.23020 -11.22460 -11.21868 -11.21730 -11.21712
 Alpha  occ. eigenvalues --  -11.21539 -11.21506 -11.21436 -11.21417 -11.21348
 Alpha  occ. eigenvalues --   -1.10821  -1.08492  -1.01823  -0.98143  -0.93838
 Alpha  occ. eigenvalues --   -0.91939  -0.86963  -0.82855  -0.70494  -0.69519
 Alpha  occ. eigenvalues --   -0.64988  -0.61512  -0.60591  -0.58878  -0.58366
 Alpha  occ. eigenvalues --   -0.56774  -0.55298  -0.54966  -0.53295  -0.52261
 Alpha  occ. eigenvalues --   -0.51859  -0.51173  -0.50832  -0.49581  -0.48519
 Alpha  occ. eigenvalues --   -0.46073  -0.44624  -0.33371  -0.31514
 Alpha virt. eigenvalues --    0.18142   0.19779   0.22152   0.24486   0.25192
 Alpha virt. eigenvalues --    0.27439   0.28535   0.28922   0.30318   0.30811
 Alpha virt. eigenvalues --    0.31477   0.32261   0.33202   0.33794   0.34383
 Alpha virt. eigenvalues --    0.35458   0.36114   0.36962   0.39185   0.40602
 Alpha virt. eigenvalues --    0.41328   0.42631   0.43685   0.44253   0.45395
 Alpha virt. eigenvalues --    0.51702   0.54378   0.61070   0.62576   0.70520
 Alpha virt. eigenvalues --    0.71073   0.72196   0.73768   0.76075   0.76177
 Alpha virt. eigenvalues --    0.76620   0.79010   0.79474   0.81070   0.82306
 Alpha virt. eigenvalues --    0.83713   0.85579   0.89117   0.91091   0.91343
 Alpha virt. eigenvalues --    0.92820   0.94745   0.97065   0.98284   0.98818
 Alpha virt. eigenvalues --    0.99710   1.00468   1.01911   1.03844   1.06577
 Alpha virt. eigenvalues --    1.08019   1.08221   1.09393   1.11664   1.12687
 Alpha virt. eigenvalues --    1.13026   1.13870   1.14856   1.15402   1.16045
 Alpha virt. eigenvalues --    1.16257   1.16619   1.18722   1.19116   1.20671
 Alpha virt. eigenvalues --    1.20953   1.23032   1.23885   1.25765   1.28153
 Alpha virt. eigenvalues --    1.34331   1.41722   1.42153   1.44890   1.46395
 Alpha virt. eigenvalues --    1.48456   1.54136   1.55360   1.57256   1.58165
 Alpha virt. eigenvalues --    1.61459   1.63397   1.66485   1.69046   1.69645
 Alpha virt. eigenvalues --    1.73917   1.82243   1.91111   1.93363   1.96231
 Alpha virt. eigenvalues --    1.98688   2.01467   2.02277   2.03942   2.08565
 Alpha virt. eigenvalues --    2.09706   2.10748   2.11744   2.13037   2.14903
 Alpha virt. eigenvalues --    2.15780   2.16940   2.19854   2.23666   2.28347
 Alpha virt. eigenvalues --    2.29590   2.30325   2.33235   2.35347   2.35688
 Alpha virt. eigenvalues --    2.35978   2.36098   2.38923   2.40264   2.41259
 Alpha virt. eigenvalues --    2.42195   2.43169   2.44154   2.45371   2.46084
 Alpha virt. eigenvalues --    2.47201   2.49167   2.49622   2.51174   2.54099
 Alpha virt. eigenvalues --    2.57315   2.58365   2.61888   2.63241   2.64107
 Alpha virt. eigenvalues --    2.67127   2.68175   2.71776   2.73352   2.73474
 Alpha virt. eigenvalues --    2.75815   2.77410   2.80796   2.82634   2.85354
 Alpha virt. eigenvalues --    2.87137   2.89441   2.92178   2.93739   2.94867
 Alpha virt. eigenvalues --    2.97869   2.99094   3.00960   3.02677   3.05807
 Alpha virt. eigenvalues --    3.06402   3.07703   3.09315   3.13762   3.17093
 Alpha virt. eigenvalues --    3.17589   3.19238   3.20046   3.21242   3.22334
 Alpha virt. eigenvalues --    3.24167   3.25050   3.26607   3.27420   3.37866
 Alpha virt. eigenvalues --    3.40355   3.46023   3.46902   3.56200   3.58183
 Alpha virt. eigenvalues --    3.59499   3.62406   3.67928   3.75494   3.78622
 Alpha virt. eigenvalues --    3.80005   3.81570   3.82569   3.83286   3.83898
 Alpha virt. eigenvalues --    3.84750   3.86481   3.87645   3.89820   3.91558
 Alpha virt. eigenvalues --    3.97645   4.59389   4.63170   4.74472   4.82572
 Alpha virt. eigenvalues --    4.88928   4.92582   4.93409   5.07840   5.10766
 Alpha virt. eigenvalues --    5.17766
          Condensed to atoms (all electrons):
               1          2          3          4          5          6
     1  C    5.004768   0.411714   0.414473   0.337355  -0.056085   0.003801
     2  H    0.411714   0.572983  -0.028296  -0.038988   0.003071  -0.000108
     3  H    0.414473  -0.028296   0.587507  -0.046308  -0.004587   0.000106
     4  C    0.337355  -0.038988  -0.046308   4.952603   0.351934  -0.042765
     5  C   -0.056085   0.003071  -0.004587   0.351934   4.891804   0.407087
     6  H    0.003801  -0.000108   0.000106  -0.042765   0.407087   0.568858
     7  H   -0.003698  -0.000034   0.002378  -0.041506   0.397495  -0.026764
     8  H    0.000011  -0.000005  -0.000489  -0.045679   0.400946  -0.027466
     9  C   -0.047991  -0.001860   0.002531   0.697840  -0.046054  -0.002890
    10  H    0.003272   0.000031  -0.000118  -0.037842  -0.006525   0.002385
    11  C   -0.007749  -0.002811   0.000160  -0.050271   0.003364   0.000132
    12  H    0.000152   0.000184   0.000017  -0.000627  -0.000106  -0.000006
    13  H   -0.001745  -0.001657   0.000030  -0.000691   0.000109   0.000005
    14  H    0.000310  -0.000067  -0.000013  -0.000247  -0.000095  -0.000006
    15  C   -0.000099  -0.000043  -0.000004   0.000001  -0.000000   0.000000
    16  H   -0.000005   0.000002   0.000000   0.000000  -0.000000   0.000000
    17  H   -0.000003  -0.000002   0.000003   0.000000  -0.000000   0.000000
    18  H    0.000024  -0.000007  -0.000002  -0.000000   0.000000  -0.000000
    19  C   -0.004325   0.001388   0.000787   0.000041  -0.000003   0.000000
    20  C    0.000587   0.000200  -0.000015  -0.000018  -0.000000  -0.000000
    21  H   -0.000302  -0.000131  -0.000016  -0.000011  -0.000000   0.000000
    22  H    0.000130  -0.000135  -0.000002  -0.000005   0.000000  -0.000000
    23  H   -0.000040   0.000022   0.000000   0.000001  -0.000000   0.000000
    24  C   -0.061827  -0.000504  -0.000900   0.006443  -0.000149   0.000004
    25  H    0.000175   0.000111   0.001011  -0.000152   0.000010  -0.000000
    26  C    0.332330  -0.041801  -0.046074  -0.055544  -0.000661  -0.000109
    27  H   -0.046841   0.004515  -0.001931  -0.002075  -0.000289  -0.000050
    28  H   -0.042369  -0.003118   0.004477  -0.001813   0.000243  -0.000005
               7          8          9         10         11         12
     1  C   -0.003698   0.000011  -0.047991   0.003272  -0.007749   0.000152
     2  H   -0.000034  -0.000005  -0.001860   0.000031  -0.002811   0.000184
     3  H    0.002378  -0.000489   0.002531  -0.000118   0.000160   0.000017
     4  C   -0.041506  -0.045679   0.697840  -0.037842  -0.050271  -0.000627
     5  C    0.397495   0.400946  -0.046054  -0.006525   0.003364  -0.000106
     6  H   -0.026764  -0.027466  -0.002890   0.002385   0.000132  -0.000006
     7  H    0.591921  -0.037541  -0.000373   0.000216  -0.000105   0.000017
     8  H   -0.037541   0.596033  -0.001011   0.000135  -0.000101  -0.000004
     9  C   -0.000373  -0.001011   4.938971   0.404494   0.340494  -0.041523
    10  H    0.000216   0.000135   0.404494   0.558671  -0.041279  -0.001122
    11  C   -0.000105  -0.000101   0.340494  -0.041279   4.900974   0.401144
    12  H    0.000017  -0.000004  -0.041523  -0.001122   0.401144   0.583648
    13  H    0.000002  -0.000003  -0.043903   0.003299   0.409079  -0.027132
    14  H   -0.000004   0.000017  -0.041805  -0.001264   0.402169  -0.035462
    15  C   -0.000000  -0.000000  -0.000000   0.000000  -0.000000   0.000000
    16  H    0.000000   0.000000   0.000000   0.000000   0.000000   0.000000
    17  H   -0.000000  -0.000000  -0.000000   0.000000   0.000000  -0.000000
    18  H   -0.000000   0.000000   0.000000  -0.000000  -0.000000  -0.000000
    19  C    0.000000   0.000000  -0.000001   0.000000   0.000013  -0.000000
    20  C    0.000000  -0.000000   0.000015  -0.000000  -0.000147   0.000004
    21  H   -0.000000   0.000000  -0.000045   0.000000   0.000074  -0.000013
    22  H   -0.000000   0.000000   0.000000  -0.000000  -0.000009  -0.000000
    23  H    0.000000  -0.000000   0.000000   0.000000   0.000003   0.000000
    24  C    0.000004  -0.000111   0.000114   0.000002  -0.000031   0.000002
    25  H   -0.000001   0.000015  -0.000002  -0.000000   0.000000   0.000000
    26  C    0.000086   0.000609  -0.004911  -0.000113   0.000577  -0.000037
    27  H    0.000058   0.000197   0.000760   0.000001  -0.000033  -0.000000
    28  H    0.000006  -0.000015   0.001406  -0.000046  -0.000082   0.000037
              13         14         15         16         17         18
     1  C   -0.001745   0.000310  -0.000099  -0.000005  -0.000003   0.000024
     2  H   -0.001657  -0.000067  -0.000043   0.000002  -0.000002  -0.000007
     3  H    0.000030  -0.000013  -0.000004   0.000000   0.000003  -0.000002
     4  C   -0.000691  -0.000247   0.000001   0.000000   0.000000  -0.000000
     5  C    0.000109  -0.000095  -0.000000  -0.000000  -0.000000   0.000000
     6  H    0.000005  -0.000006   0.000000   0.000000   0.000000  -0.000000
     7  H    0.000002  -0.000004  -0.000000   0.000000  -0.000000  -0.000000
     8  H   -0.000003   0.000017  -0.000000   0.000000  -0.000000   0.000000
     9  C   -0.043903  -0.041805  -0.000000   0.000000  -0.000000   0.000000
    10  H    0.003299  -0.001264   0.000000   0.000000   0.000000  -0.000000
    11  C    0.409079   0.402169  -0.000000   0.000000   0.000000  -0.000000
    12  H   -0.027132  -0.035462   0.000000   0.000000  -0.000000  -0.000000
    13  H    0.577164  -0.029956   0.000000  -0.000000  -0.000000  -0.000000
    14  H   -0.029956   0.586720  -0.000000  -0.000000  -0.000000   0.000000
    15  C    0.000000  -0.000000   4.900112   0.398811   0.406218   0.398238
    16  H   -0.000000  -0.000000   0.398811   0.593607  -0.026549  -0.037806
    17  H   -0.000000  -0.000000   0.406218  -0.026549   0.566018  -0.026703
    18  H   -0.000000   0.000000   0.398238  -0.037806  -0.026703   0.594542
    19  C   -0.000026   0.000001   0.353753  -0.044274  -0.041639  -0.043899
    20  C   -0.000000  -0.000015  -0.064931  -0.001201   0.003785  -0.001975
    21  H    0.000412   0.000114   0.003725  -0.000031  -0.000113  -0.000068
    22  H    0.000079   0.000000  -0.002632  -0.000476  -0.000032   0.002756
    23  H   -0.000008  -0.000000  -0.002223   0.002766  -0.000053  -0.000456
    24  C    0.000026  -0.000009  -0.044415  -0.001270  -0.002632  -0.000422
    25  H   -0.000002   0.000000  -0.006963   0.000187   0.002335   0.000182
    26  C   -0.000737   0.000163   0.003126  -0.000131   0.000148  -0.000068
    27  H   -0.000010  -0.000000  -0.000094   0.000009  -0.000010  -0.000002
    28  H   -0.000475  -0.000140   0.000051   0.000007   0.000007  -0.000005
              19         20         21         22         23         24
     1  C   -0.004325   0.000587  -0.000302   0.000130  -0.000040  -0.061827
     2  H    0.001388   0.000200  -0.000131  -0.000135   0.000022  -0.000504
     3  H    0.000787  -0.000015  -0.000016  -0.000002   0.000000  -0.000900
     4  C    0.000041  -0.000018  -0.000011  -0.000005   0.000001   0.006443
     5  C   -0.000003  -0.000000  -0.000000   0.000000  -0.000000  -0.000149
     6  H    0.000000  -0.000000   0.000000  -0.000000   0.000000   0.000004
     7  H    0.000000   0.000000  -0.000000  -0.000000   0.000000   0.000004
     8  H    0.000000  -0.000000   0.000000   0.000000  -0.000000  -0.000111
     9  C   -0.000001   0.000015  -0.000045   0.000000   0.000000   0.000114
    10  H    0.000000  -0.000000   0.000000  -0.000000   0.000000   0.000002
    11  C    0.000013  -0.000147   0.000074  -0.000009   0.000003  -0.000031
    12  H   -0.000000   0.000004  -0.000013  -0.000000   0.000000   0.000002
    13  H   -0.000026  -0.000000   0.000412   0.000079  -0.000008   0.000026
    14  H    0.000001  -0.000015   0.000114   0.000000  -0.000000  -0.000009
    15  C    0.353753  -0.064931   0.003725  -0.002632  -0.002223  -0.044415
    16  H   -0.044274  -0.001201  -0.000031  -0.000476   0.002766  -0.001270
    17  H   -0.041639   0.003785  -0.000113  -0.000032  -0.000053  -0.002632
    18  H   -0.043899  -0.001975  -0.000068   0.002756  -0.000456  -0.000422
    19  C    4.914192   0.350333  -0.037848  -0.043385  -0.043537   0.697734
    20  C    0.350333   4.907254   0.407154   0.401208   0.399852  -0.044248
    21  H   -0.037848   0.407154   0.568221  -0.028659  -0.026060  -0.003253
    22  H   -0.043385   0.401208  -0.028659   0.587442  -0.035759  -0.000031
    23  H   -0.043537   0.399852  -0.026060  -0.035759   0.584669  -0.000365
    24  C    0.697734  -0.044248  -0.003253  -0.000031  -0.000365   4.962746
    25  H   -0.038449   0.003528   0.000061  -0.000121  -0.000121   0.403391
    26  C   -0.050100  -0.008144  -0.002069   0.000367   0.000117   0.338699
    27  H    0.001583   0.000195   0.000058  -0.000014   0.000021  -0.041394
    28  H    0.000438  -0.002693  -0.001675  -0.000076   0.000113  -0.044060
              25         26         27         28
     1  C    0.000175   0.332330  -0.046841  -0.042369
     2  H    0.000111  -0.041801   0.004515  -0.003118
     3  H    0.001011  -0.046074  -0.001931   0.004477
     4  C   -0.000152  -0.055544  -0.002075  -0.001813
     5  C    0.000010  -0.000661  -0.000289   0.000243
     6  H   -0.000000  -0.000109  -0.000050  -0.000005
     7  H   -0.000001   0.000086   0.000058   0.000006
     8  H    0.000015   0.000609   0.000197  -0.000015
     9  C   -0.000002  -0.004911   0.000760   0.001406
    10  H   -0.000000  -0.000113   0.000001  -0.000046
    11  C    0.000000   0.000577  -0.000033  -0.000082
    12  H    0.000000  -0.000037  -0.000000   0.000037
    13  H   -0.000002  -0.000737  -0.000010  -0.000475
    14  H    0.000000   0.000163  -0.000000  -0.000140
    15  C   -0.006963   0.003126  -0.000094   0.000051
    16  H    0.000187  -0.000131   0.000009   0.000007
    17  H    0.002335   0.000148  -0.000010   0.000007
    18  H    0.000182  -0.000068  -0.000002  -0.000005
    19  C   -0.038449  -0.050100   0.001583   0.000438
    20  C    0.003528  -0.008144   0.000195  -0.002693
    21  H    0.000061  -0.002069   0.000058  -0.001675
    22  H   -0.000121   0.000367  -0.000014  -0.000076
    23  H   -0.000121   0.000117   0.000021   0.000113
    24  C    0.403391   0.338699  -0.041394  -0.044060
    25  H    0.557389  -0.039113  -0.003424   0.003152
    26  C   -0.039113   4.979544   0.413482   0.415850
    27  H   -0.003424   0.413482   0.585267  -0.028362
    28  H    0.003152   0.415850  -0.028362   0.575347
 Mulliken charges:
               1
     1  C   -0.236021
     2  H    0.125346
     3  H    0.115272
     4  C    0.018322
     5  C   -0.341505
     6  H    0.117792
     7  H    0.117844
     8  H    0.114461
     9  C   -0.154256
    10  H    0.115801
    11  C   -0.355567
    12  H    0.120830
    13  H    0.116140
    14  H    0.119588
    15  C   -0.342631
    16  H    0.116356
    17  H    0.119222
    18  H    0.115672
    19  C    0.027222
    20  C   -0.350727
    21  H    0.120474
    22  H    0.119352
    23  H    0.121058
    24  C   -0.163542
    25  H    0.116803
    26  C   -0.235486
    27  H    0.118380
    28  H    0.123802
 Sum of Mulliken charges =  -0.00000
 Mulliken charges with hydrogens summed into heavy atoms:
               1
     1  C    0.004596
     4  C    0.018322
     5  C    0.008593
     9  C   -0.038454
    11  C    0.000991
    15  C    0.008618
    19  C    0.027222
    20  C    0.010156
    24  C   -0.046740
    26  C    0.006696
 Electronic spatial extent (au):  <R**2>=           2384.0066
 Charge=             -0.0000 electrons
 Dipole moment (field-independent basis, Debye):
    X=             -0.3027    Y=              0.1253    Z=              0.0460  Tot=              0.3308
 Quadrupole moment (field-independent basis, Debye-Ang):
   XX=            -64.3024   YY=            -63.2901   ZZ=            -67.3956
   XY=             -0.7521   XZ=             -1.2367   YZ=             -0.3487
 Traceless Quadrupole moment (field-independent basis, Debye-Ang):
   XX=              0.6937   YY=              1.7059   ZZ=             -2.3996
   XY=             -0.7521   XZ=             -1.2367   YZ=             -0.3487
 Octapole moment (field-independent basis, Debye-Ang**2):
  XXX=             -2.6682  YYY=             -2.9989  ZZZ=              0.8999  XYY=              0.6416
  XXY=              4.0909  XXZ=             -2.0918  XZZ=             -1.2120  YZZ=              1.4955
  YYZ=              0.6111  XYZ=              0.3641
 Hexadecapole moment (field-independent basis, Debye-Ang**3):
 XXXX=          -2435.7170 YYYY=           -693.4923 ZZZZ=           -166.6418 XXXY=             -2.3046
 XXXZ=            -14.7514 YYYX=             11.0526 YYYZ=             -1.4215 ZZZX=             -2.8119
 ZZZY=             -0.6410 XXYY=           -520.1248 XXZZ=           -449.2342 YYZZ=           -138.3649
 XXYZ=             -4.2785 YYXZ=             -0.5786 ZZXY=             -5.9187
 N-N= 5.190879661840D+02 E-N=-1.942888671421D+03  KE= 3.887471638210D+02
 No NMR shielding tensors so no spin-rotation constants.
 Leave Link  601 at Fri Sep 17 16:07:40 2021, MaxMem=   524288000 cpu:               0.4 elap:               1.1
 (Enter /opt/gaussian/g16_legacy/l9999.exe)
 1\1\GINC-TRUENO91\FOpt\RMP2-FC\6-31G(d,p)\C10H18\JRAMOS\17-Sep-2021\0\
 \#p opt mp2/6-31g(d,p)\\Conformer number 2780. Energy MM = 23.242 kcal
 /mol\\0,1\C,0.6088116258,-0.9877469362,0.2801305266\H,0.3821801864,-0.
 5576886414,1.25696395\H,0.2632076613,-2.0249541492,0.3154389347\C,2.08
 93781998,-0.9634085715,-0.005210305\C,2.6003095879,-2.0789615986,-0.87
 58089663\H,3.6586177401,-1.9569554125,-1.1030037037\H,2.4635674412,-3.
 0462679823,-0.3875006633\H,2.0535568402,-2.1201439322,-1.8205007674\C,
 2.913088984,0.0077827337,0.4309545876\H,3.9599462531,-0.0537186243,0.1
 466122399\C,2.5453646907,1.1877069974,1.2785981848\H,3.108864781,1.188
 2139922,2.2136003027\H,1.486109572,1.2067367798,1.5247720518\H,2.78345
 44429,2.1205958603,0.7640716533\C,-3.9401524598,0.2557236597,0.2627126
 448\H,-4.5422796159,1.0416785032,-0.1988199244\H,-4.2263769796,-0.6974
 443403,-0.1792203303\H,-4.2046741273,0.2355104019,1.322348427\C,-2.472
 7534582,0.5302806187,0.0815830692\C,-2.000224309,1.8334162223,0.664178
 4955\H,-0.9308792185,1.9885692978,0.5451307005\H,-2.229371377,1.873189
 9364,1.7312985275\H,-2.5210879904,2.6729127809,0.1982133151\C,-1.67922
 43306,-0.3467403564,-0.5617764199\H,-2.1360610311,-1.2663344288,-0.918
 8196842\C,-0.2011601464,-0.2279518167,-0.7878302308\H,0.047533038,-0.6
 283103823,-1.7742917611\H,0.1202539993,0.8143093884,-0.7921248544\\Ver
 sion=EM64L-G16RevA.03\State=1-A\HF=-389.1567534\MP2=-390.5738646\RMSD=
 5.136e-09\RMSF=3.220e-06\Dipole=-0.0792212,0.0705797,0.0475184\PG=C01 
 [X(C10H18)]\\@


 SI MONUMENTUM REQUIRIS, CIRCUMSPICE
     -- FROM SIR CHRISTOPHER WREN'S TOMBSTONE
 Job cpu time:       0 days  1 hours 17 minutes 18.2 seconds.
 Elapsed time:       0 days  1 hours 17 minutes 27.1 seconds.
 File lengths (MBytes):  RWF=     32 Int=      0 D2E=      0 Chk=      7 Scr=      1
 Normal termination of Gaussian 16 at Fri Sep 17 16:07:41 2021.
