 Entering Gaussian System, Link 0=/opt/gaussian/g16_legacy/g16
 Input=01-IsoP_2323_gaussian.com
 Output=01-IsoP_2323_gaussian.log
 Initial command:
 /opt/gaussian/g16_legacy/l1.exe "/scratch-local/jramos/2661354/Gau-29976.inp" -scrdir="/scratch-local/jramos/2661354/"
 Entering Link 1 = /opt/gaussian/g16_legacy/l1.exe PID=     29999.
  
 Copyright (c) 1988,1990,1992,1993,1995,1998,2003,2009,2016,
            Gaussian, Inc.  All Rights Reserved.
  
 This is part of the Gaussian(R) 16 program.  It is based on
 the Gaussian(R) 09 system (copyright 2009, Gaussian, Inc.),
 the Gaussian(R) 03 system (copyright 2003, Gaussian, Inc.),
 the Gaussian(R) 98 system (copyright 1998, Gaussian, Inc.),
 the Gaussian(R) 94 system (copyright 1995, Gaussian, Inc.),
 the Gaussian 92(TM) system (copyright 1992, Gaussian, Inc.),
 the Gaussian 90(TM) system (copyright 1990, Gaussian, Inc.),
 the Gaussian 88(TM) system (copyright 1988, Gaussian, Inc.),
 the Gaussian 86(TM) system (copyright 1986, Carnegie Mellon
 University), and the Gaussian 82(TM) system (copyright 1983,
 Carnegie Mellon University). Gaussian is a federally registered
 trademark of Gaussian, Inc.
  
 This software contains proprietary and confidential information,
 including trade secrets, belonging to Gaussian, Inc.
  
 This software is provided under written license and may be
 used, copied, transmitted, or stored only in accord with that
 written license.
  
 The following legend is applicable only to US Government
 contracts under FAR:
  
                    RESTRICTED RIGHTS LEGEND
  
 Use, reproduction and disclosure by the US Government is
 subject to restrictions as set forth in subparagraphs (a)
 and (c) of the Commercial Computer Software - Restricted
 Rights clause in FAR 52.227-19.
  
 Gaussian, Inc.
 340 Quinnipiac St., Bldg. 40, Wallingford CT 06492
  
  
 ---------------------------------------------------------------
 Warning -- This program may not be used in any manner that
 competes with the business of Gaussian, Inc. or will provide
 assistance to any competitor of Gaussian, Inc.  The licensee
 of this program is prohibited from giving any competitor of
 Gaussian, Inc. access to this program.  By using this program,
 the user acknowledges that Gaussian, Inc. is engaged in the
 business of creating and licensing software in the field of
 computational chemistry and represents and warrants to the
 licensee that it is not a competitor of Gaussian, Inc. and that
 it will not use this program in any manner prohibited above.
 ---------------------------------------------------------------
  

 Cite this work as:
 Gaussian 16, Revision A.03,
 M. J. Frisch, G. W. Trucks, H. B. Schlegel, G. E. Scuseria, 
 M. A. Robb, J. R. Cheeseman, G. Scalmani, V. Barone, 
 G. A. Petersson, H. Nakatsuji, X. Li, M. Caricato, A. V. Marenich, 
 J. Bloino, B. G. Janesko, R. Gomperts, B. Mennucci, H. P. Hratchian, 
 J. V. Ortiz, A. F. Izmaylov, J. L. Sonnenberg, D. Williams-Young, 
 F. Ding, F. Lipparini, F. Egidi, J. Goings, B. Peng, A. Petrone, 
 T. Henderson, D. Ranasinghe, V. G. Zakrzewski, J. Gao, N. Rega, 
 G. Zheng, W. Liang, M. Hada, M. Ehara, K. Toyota, R. Fukuda, 
 J. Hasegawa, M. Ishida, T. Nakajima, Y. Honda, O. Kitao, H. Nakai, 
 T. Vreven, K. Throssell, J. A. Montgomery, Jr., J. E. Peralta, 
 F. Ogliaro, M. J. Bearpark, J. J. Heyd, E. N. Brothers, K. N. Kudin, 
 V. N. Staroverov, T. A. Keith, R. Kobayashi, J. Normand, 
 K. Raghavachari, A. P. Rendell, J. C. Burant, S. S. Iyengar, 
 J. Tomasi, M. Cossi, J. M. Millam, M. Klene, C. Adamo, R. Cammi, 
 J. W. Ochterski, R. L. Martin, K. Morokuma, O. Farkas, 
 J. B. Foresman, and D. J. Fox, Gaussian, Inc., Wallingford CT, 2016.
 
 ******************************************
 Gaussian 16:  EM64L-G16RevA.03 25-Dec-2016
                17-Sep-2021 
 ******************************************
 %chk=01-IsoP_2323_gaussian.chk
 %nproc=1
 Will use up to    1 processors via shared memory.
 %mem=4000Mb
 ---------------------
 #p opt mp2/6-31g(d,p)
 ---------------------
 1/18=20,19=15,38=1/1,3;
 2/9=110,12=2,17=6,18=5,40=1/2;
 3/5=1,6=6,7=101,11=9,25=1,30=1,71=1/1,2,3;
 4//1;
 5/5=2,38=5/2;
 8/6=4,10=2/1;
 9/15=2,16=-3/6;
 10/5=1/2;
 6/7=2,8=2,9=2,10=2/1;
 7/12=2/1,2,3,16;
 1/18=20,19=15/3(2);
 2/9=110/2;
 99//99;
 2/9=110/2;
 3/5=1,6=6,7=101,11=9,25=1,30=1,71=1/1,2,3;
 4/5=5,16=3,69=1/1;
 5/5=2,38=5/2;
 8/6=4,10=2/1;
 9/15=2,16=-3/6;
 10/5=1/2;
 7/12=2/1,2,3,16;
 1/18=20,19=15/3(-8);
 2/9=110/2;
 6/7=2,8=2,9=2,10=2/1;
 99//99;
 Leave Link    1 at Fri Sep 17 13:32:38 2021, MaxMem=   524288000 cpu:               0.0 elap:               0.1
 (Enter /opt/gaussian/g16_legacy/l101.exe)
 --------------------------------------------------
 Conformer number 2323. Energy MM = 23.242 kcal/mol
 --------------------------------------------------
 Symbolic Z-matrix:
 Charge =  0 Multiplicity = 1
 C                     0.7889   -0.7839    0.3914 
 H                     0.8114   -0.8967   -0.6991 
 H                     0.6935   -1.8074    0.7783 
 C                     2.0877   -0.1861    0.892 
 C                     2.473    -0.5799    2.2949 
 H                     1.7066   -0.258     3.0069 
 H                     3.4221   -0.1306    2.6059 
 H                     2.5821   -1.6669    2.3677 
 C                     2.8836    0.6222    0.1642 
 H                     3.8104    0.9812    0.611 
 C                     2.6427    1.1289   -1.2227 
 H                     1.6469    0.8948   -1.6054 
 H                     2.7487    2.2185   -1.236 
 H                     3.3849    0.7064   -1.9067 
 C                    -2.1238    0.9691   -1.6608 
 H                    -2.8582    1.7733   -1.549 
 H                    -2.1422    0.628    -2.7016 
 H                    -1.132     1.3916   -1.485 
 C                    -2.4605   -0.1702   -0.7387 
 C                    -3.7423   -0.8849   -1.0791 
 H                    -4.5852   -0.1869   -1.044 
 H                    -3.6837   -1.3104   -2.0862 
 H                    -3.9596   -1.7032   -0.3846 
 C                    -1.7098   -0.5669    0.3075 
 H                    -2.0476   -1.421     0.8947 
 C                    -0.4289    0.0484    0.805 
 H                    -0.4896    0.1089    1.899 
 H                    -0.319     1.0817    0.4599 
 
 ITRead=  0  0  0  0  0  0  0  0  0  0  0  0  0  0  0  0  0  0  0  0
 ITRead=  0  0  0  0  0  0  0  0
 MicOpt= -1 -1 -1 -1 -1 -1 -1 -1 -1 -1 -1 -1 -1 -1 -1 -1 -1 -1 -1 -1
 MicOpt= -1 -1 -1 -1 -1 -1 -1 -1
 NAtoms=     28 NQM=       28 NQMF=       0 NMMI=      0 NMMIF=      0
                NMic=       0 NMicF=      0.
                    Isotopes and Nuclear Properties:
 (Nuclear quadrupole moments (NQMom) in fm**2, nuclear magnetic moments (NMagM)
  in nuclear magnetons)

  Atom         1           2           3           4           5           6           7           8           9          10
 IAtWgt=          12           1           1          12          12           1           1           1          12           1
 AtmWgt=  12.0000000   1.0078250   1.0078250  12.0000000  12.0000000   1.0078250   1.0078250   1.0078250  12.0000000   1.0078250
 NucSpn=           0           1           1           0           0           1           1           1           0           1
 AtZEff=  -0.0000000  -0.0000000  -0.0000000  -0.0000000  -0.0000000  -0.0000000  -0.0000000  -0.0000000  -0.0000000  -0.0000000
 NQMom=    0.0000000   0.0000000   0.0000000   0.0000000   0.0000000   0.0000000   0.0000000   0.0000000   0.0000000   0.0000000
 NMagM=    0.0000000   2.7928460   2.7928460   0.0000000   0.0000000   2.7928460   2.7928460   2.7928460   0.0000000   2.7928460
 AtZNuc=   6.0000000   1.0000000   1.0000000   6.0000000   6.0000000   1.0000000   1.0000000   1.0000000   6.0000000   1.0000000

  Atom        11          12          13          14          15          16          17          18          19          20
 IAtWgt=          12           1           1           1          12           1           1           1          12          12
 AtmWgt=  12.0000000   1.0078250   1.0078250   1.0078250  12.0000000   1.0078250   1.0078250   1.0078250  12.0000000  12.0000000
 NucSpn=           0           1           1           1           0           1           1           1           0           0
 AtZEff=  -0.0000000  -0.0000000  -0.0000000  -0.0000000  -0.0000000  -0.0000000  -0.0000000  -0.0000000  -0.0000000  -0.0000000
 NQMom=    0.0000000   0.0000000   0.0000000   0.0000000   0.0000000   0.0000000   0.0000000   0.0000000   0.0000000   0.0000000
 NMagM=    0.0000000   2.7928460   2.7928460   2.7928460   0.0000000   2.7928460   2.7928460   2.7928460   0.0000000   0.0000000
 AtZNuc=   6.0000000   1.0000000   1.0000000   1.0000000   6.0000000   1.0000000   1.0000000   1.0000000   6.0000000   6.0000000

  Atom        21          22          23          24          25          26          27          28
 IAtWgt=           1           1           1          12           1          12           1           1
 AtmWgt=   1.0078250   1.0078250   1.0078250  12.0000000   1.0078250  12.0000000   1.0078250   1.0078250
 NucSpn=           1           1           1           0           1           0           1           1
 AtZEff=  -0.0000000  -0.0000000  -0.0000000  -0.0000000  -0.0000000  -0.0000000  -0.0000000  -0.0000000
 NQMom=    0.0000000   0.0000000   0.0000000   0.0000000   0.0000000   0.0000000   0.0000000   0.0000000
 NMagM=    2.7928460   2.7928460   2.7928460   0.0000000   2.7928460   0.0000000   2.7928460   2.7928460
 AtZNuc=   1.0000000   1.0000000   1.0000000   6.0000000   1.0000000   6.0000000   1.0000000   1.0000000
 Leave Link  101 at Fri Sep 17 13:32:39 2021, MaxMem=   524288000 cpu:               0.3 elap:               0.3
 (Enter /opt/gaussian/g16_legacy/l103.exe)

 GradGradGradGradGradGradGradGradGradGradGradGradGradGradGradGradGradGrad
 Berny optimization.
 Initialization pass.
                           ----------------------------
                           !    Initial Parameters    !
                           ! (Angstroms and Degrees)  !
 --------------------------                            --------------------------
 ! Name  Definition              Value          Derivative Info.                !
 --------------------------------------------------------------------------------
 ! R1    R(1,2)                  1.0965         estimate D2E/DX2                !
 ! R2    R(1,3)                  1.0983         estimate D2E/DX2                !
 ! R3    R(1,4)                  1.5149         estimate D2E/DX2                !
 ! R4    R(1,26)                 1.5319         estimate D2E/DX2                !
 ! R5    R(4,5)                  1.5072         estimate D2E/DX2                !
 ! R6    R(4,9)                  1.3478         estimate D2E/DX2                !
 ! R7    R(5,6)                  1.0945         estimate D2E/DX2                !
 ! R8    R(5,7)                  1.0952         estimate D2E/DX2                !
 ! R9    R(5,8)                  1.0949         estimate D2E/DX2                !
 ! R10   R(9,10)                 1.0897         estimate D2E/DX2                !
 ! R11   R(9,11)                 1.4961         estimate D2E/DX2                !
 ! R12   R(11,12)                1.0922         estimate D2E/DX2                !
 ! R13   R(11,13)                1.0948         estimate D2E/DX2                !
 ! R14   R(11,14)                1.0942         estimate D2E/DX2                !
 ! R15   R(15,16)                1.0948         estimate D2E/DX2                !
 ! R16   R(15,17)                1.0954         estimate D2E/DX2                !
 ! R17   R(15,18)                1.0923         estimate D2E/DX2                !
 ! R18   R(15,19)                1.5039         estimate D2E/DX2                !
 ! R19   R(19,20)                1.5065         estimate D2E/DX2                !
 ! R20   R(19,24)                1.3474         estimate D2E/DX2                !
 ! R21   R(20,21)                1.095          estimate D2E/DX2                !
 ! R22   R(20,22)                1.0949         estimate D2E/DX2                !
 ! R23   R(20,23)                1.0951         estimate D2E/DX2                !
 ! R24   R(24,25)                1.0901         estimate D2E/DX2                !
 ! R25   R(24,26)                1.5056         estimate D2E/DX2                !
 ! R26   R(26,27)                1.0974         estimate D2E/DX2                !
 ! R27   R(26,28)                1.0949         estimate D2E/DX2                !
 ! A1    A(2,1,3)              104.8471         estimate D2E/DX2                !
 ! A2    A(2,1,4)              110.5873         estimate D2E/DX2                !
 ! A3    A(2,1,26)             109.9193         estimate D2E/DX2                !
 ! A4    A(3,1,4)              109.0137         estimate D2E/DX2                !
 ! A5    A(3,1,26)             110.0066         estimate D2E/DX2                !
 ! A6    A(4,1,26)             112.2061         estimate D2E/DX2                !
 ! A7    A(1,4,5)              115.0657         estimate D2E/DX2                !
 ! A8    A(1,4,9)              124.3687         estimate D2E/DX2                !
 ! A9    A(5,4,9)              120.555          estimate D2E/DX2                !
 ! A10   A(4,5,6)              110.4663         estimate D2E/DX2                !
 ! A11   A(4,5,7)              112.2517         estimate D2E/DX2                !
 ! A12   A(4,5,8)              110.2893         estimate D2E/DX2                !
 ! A13   A(6,5,7)              107.5444         estimate D2E/DX2                !
 ! A14   A(6,5,8)              108.5728         estimate D2E/DX2                !
 ! A15   A(7,5,8)              107.5818         estimate D2E/DX2                !
 ! A16   A(4,9,10)             118.5818         estimate D2E/DX2                !
 ! A17   A(4,9,11)             127.49           estimate D2E/DX2                !
 ! A18   A(10,9,11)            113.9202         estimate D2E/DX2                !
 ! A19   A(9,11,12)            113.5182         estimate D2E/DX2                !
 ! A20   A(9,11,13)            109.4351         estimate D2E/DX2                !
 ! A21   A(9,11,14)            109.8467         estimate D2E/DX2                !
 ! A22   A(12,11,13)           107.2976         estimate D2E/DX2                !
 ! A23   A(12,11,14)           108.4603         estimate D2E/DX2                !
 ! A24   A(13,11,14)           108.121          estimate D2E/DX2                !
 ! A25   A(16,15,17)           108.3302         estimate D2E/DX2                !
 ! A26   A(16,15,18)           107.9707         estimate D2E/DX2                !
 ! A27   A(16,15,19)           110.1018         estimate D2E/DX2                !
 ! A28   A(17,15,18)           106.7753         estimate D2E/DX2                !
 ! A29   A(17,15,19)           110.0546         estimate D2E/DX2                !
 ! A30   A(18,15,19)           113.4308         estimate D2E/DX2                !
 ! A31   A(15,19,20)           114.2891         estimate D2E/DX2                !
 ! A32   A(15,19,24)           125.0573         estimate D2E/DX2                !
 ! A33   A(20,19,24)           120.6508         estimate D2E/DX2                !
 ! A34   A(19,20,21)           110.2007         estimate D2E/DX2                !
 ! A35   A(19,20,22)           110.2833         estimate D2E/DX2                !
 ! A36   A(19,20,23)           112.3358         estimate D2E/DX2                !
 ! A37   A(21,20,22)           108.568          estimate D2E/DX2                !
 ! A38   A(21,20,23)           107.6542         estimate D2E/DX2                !
 ! A39   A(22,20,23)           107.6728         estimate D2E/DX2                !
 ! A40   A(19,24,25)           118.4421         estimate D2E/DX2                !
 ! A41   A(19,24,26)           127.6077         estimate D2E/DX2                !
 ! A42   A(25,24,26)           113.9429         estimate D2E/DX2                !
 ! A43   A(1,26,24)            111.4113         estimate D2E/DX2                !
 ! A44   A(1,26,27)            110.065          estimate D2E/DX2                !
 ! A45   A(1,26,28)            110.3549         estimate D2E/DX2                !
 ! A46   A(24,26,27)           107.752          estimate D2E/DX2                !
 ! A47   A(24,26,28)           111.5257         estimate D2E/DX2                !
 ! A48   A(27,26,28)           105.5298         estimate D2E/DX2                !
 ! D1    D(2,1,4,5)           -151.4084         estimate D2E/DX2                !
 ! D2    D(2,1,4,9)             27.4117         estimate D2E/DX2                !
 ! D3    D(3,1,4,5)            -36.6398         estimate D2E/DX2                !
 ! D4    D(3,1,4,9)            142.1802         estimate D2E/DX2                !
 ! D5    D(26,1,4,5)            85.4692         estimate D2E/DX2                !
 ! D6    D(26,1,4,9)           -95.7107         estimate D2E/DX2                !
 ! D7    D(2,1,26,24)           56.9333         estimate D2E/DX2                !
 ! D8    D(2,1,26,27)          176.398          estimate D2E/DX2                !
 ! D9    D(2,1,26,28)          -67.5278         estimate D2E/DX2                !
 ! D10   D(3,1,26,24)          -58.027          estimate D2E/DX2                !
 ! D11   D(3,1,26,27)           61.4378         estimate D2E/DX2                !
 ! D12   D(3,1,26,28)          177.512          estimate D2E/DX2                !
 ! D13   D(4,1,26,24)         -179.5692         estimate D2E/DX2                !
 ! D14   D(4,1,26,27)          -60.1044         estimate D2E/DX2                !
 ! D15   D(4,1,26,28)           55.9698         estimate D2E/DX2                !
 ! D16   D(1,4,5,6)            -60.534          estimate D2E/DX2                !
 ! D17   D(1,4,5,7)            179.4433         estimate D2E/DX2                !
 ! D18   D(1,4,5,8)             59.4948         estimate D2E/DX2                !
 ! D19   D(9,4,5,6)            120.597          estimate D2E/DX2                !
 ! D20   D(9,4,5,7)              0.5744         estimate D2E/DX2                !
 ! D21   D(9,4,5,8)           -119.3742         estimate D2E/DX2                !
 ! D22   D(1,4,9,10)          -178.6006         estimate D2E/DX2                !
 ! D23   D(1,4,9,11)             2.4928         estimate D2E/DX2                !
 ! D24   D(5,4,9,10)             0.1582         estimate D2E/DX2                !
 ! D25   D(5,4,9,11)          -178.7484         estimate D2E/DX2                !
 ! D26   D(4,9,11,12)            7.9204         estimate D2E/DX2                !
 ! D27   D(4,9,11,13)          127.7499         estimate D2E/DX2                !
 ! D28   D(4,9,11,14)         -113.6952         estimate D2E/DX2                !
 ! D29   D(10,9,11,12)        -171.0292         estimate D2E/DX2                !
 ! D30   D(10,9,11,13)         -51.1997         estimate D2E/DX2                !
 ! D31   D(10,9,11,14)          67.3552         estimate D2E/DX2                !
 ! D32   D(16,15,19,20)         66.5547         estimate D2E/DX2                !
 ! D33   D(16,15,19,24)       -114.0527         estimate D2E/DX2                !
 ! D34   D(17,15,19,20)        -52.7932         estimate D2E/DX2                !
 ! D35   D(17,15,19,24)        126.5994         estimate D2E/DX2                !
 ! D36   D(18,15,19,20)       -172.3355         estimate D2E/DX2                !
 ! D37   D(18,15,19,24)          7.0571         estimate D2E/DX2                !
 ! D38   D(15,19,20,21)        -59.5923         estimate D2E/DX2                !
 ! D39   D(15,19,20,22)         60.2567         estimate D2E/DX2                !
 ! D40   D(15,19,20,23)       -179.6276         estimate D2E/DX2                !
 ! D41   D(24,19,20,21)        120.9856         estimate D2E/DX2                !
 ! D42   D(24,19,20,22)       -119.1654         estimate D2E/DX2                !
 ! D43   D(24,19,20,23)          0.9503         estimate D2E/DX2                !
 ! D44   D(15,19,24,25)       -178.8334         estimate D2E/DX2                !
 ! D45   D(15,19,24,26)          2.2136         estimate D2E/DX2                !
 ! D46   D(20,19,24,25)          0.5231         estimate D2E/DX2                !
 ! D47   D(20,19,24,26)       -178.4299         estimate D2E/DX2                !
 ! D48   D(19,24,26,1)        -103.3623         estimate D2E/DX2                !
 ! D49   D(19,24,26,27)        135.8086         estimate D2E/DX2                !
 ! D50   D(19,24,26,28)         20.4378         estimate D2E/DX2                !
 ! D51   D(25,24,26,1)          77.645          estimate D2E/DX2                !
 ! D52   D(25,24,26,27)        -43.1841         estimate D2E/DX2                !
 ! D53   D(25,24,26,28)       -158.5549         estimate D2E/DX2                !
 --------------------------------------------------------------------------------
 Trust Radius=3.00D-01 FncErr=1.00D-07 GrdErr=1.00D-07 EigMax=2.50D+02 EigMin=1.00D-04
 Number of steps in this run=    138 maximum allowed number of steps=    168.
 GradGradGradGradGradGradGradGradGradGradGradGradGradGradGradGradGradGrad

 Leave Link  103 at Fri Sep 17 13:32:39 2021, MaxMem=   524288000 cpu:               0.0 elap:               0.0
 (Enter /opt/gaussian/g16_legacy/l202.exe)
                          Input orientation:                          
 ---------------------------------------------------------------------
 Center     Atomic      Atomic             Coordinates (Angstroms)
 Number     Number       Type             X           Y           Z
 ---------------------------------------------------------------------
      1          6           0        0.788900   -0.783900    0.391400
      2          1           0        0.811400   -0.896700   -0.699100
      3          1           0        0.693500   -1.807400    0.778300
      4          6           0        2.087700   -0.186100    0.892000
      5          6           0        2.473000   -0.579900    2.294900
      6          1           0        1.706600   -0.258000    3.006900
      7          1           0        3.422100   -0.130600    2.605900
      8          1           0        2.582100   -1.666900    2.367700
      9          6           0        2.883600    0.622200    0.164200
     10          1           0        3.810400    0.981200    0.611000
     11          6           0        2.642700    1.128900   -1.222700
     12          1           0        1.646900    0.894800   -1.605400
     13          1           0        2.748700    2.218500   -1.236000
     14          1           0        3.384900    0.706400   -1.906700
     15          6           0       -2.123800    0.969100   -1.660800
     16          1           0       -2.858200    1.773300   -1.549000
     17          1           0       -2.142200    0.628000   -2.701600
     18          1           0       -1.132000    1.391600   -1.485000
     19          6           0       -2.460500   -0.170200   -0.738700
     20          6           0       -3.742300   -0.884900   -1.079100
     21          1           0       -4.585200   -0.186900   -1.044000
     22          1           0       -3.683700   -1.310400   -2.086200
     23          1           0       -3.959600   -1.703200   -0.384600
     24          6           0       -1.709800   -0.566900    0.307500
     25          1           0       -2.047600   -1.421000    0.894700
     26          6           0       -0.428900    0.048400    0.805000
     27          1           0       -0.489600    0.108900    1.899000
     28          1           0       -0.319000    1.081700    0.459900
 ---------------------------------------------------------------------
                    Distance matrix (angstroms):
                    1          2          3          4          5
     1  C    0.000000
     2  H    1.096549   0.000000
     3  H    1.098337   1.739536   0.000000
     4  C    1.514875   2.159975   2.141340   0.000000
     5  C    2.549730   3.438795   2.640729   1.507204   0.000000
     6  H    2.821274   3.865716   2.897183   2.150165   1.094501
     7  H    3.502078   4.280851   3.687416   2.172822   1.095163
     8  H    2.810875   3.624065   2.472396   2.148230   1.094884
     9  C    2.533082   2.710416   3.328155   1.347775   2.480629
    10  H    3.506175   3.773178   4.185612   2.099820   2.657290
    11  C    3.114594   2.780445   4.052806   2.551315   3.914372
    12  H    2.746162   2.174606   3.727316   2.756747   4.250826
    13  H    3.937468   3.707541   4.948649   3.278324   4.513791
    14  H    3.773788   3.263607   4.557636   3.211231   4.487713
    15  C    3.970939   3.608528   4.647079   5.058459   6.259196
    16  H    4.858576   4.617055   5.554486   5.853175   6.981032
    17  H    4.489038   3.880524   5.107061   5.609704   6.908264
    18  H    3.455942   3.103346   4.323029   4.301829   5.583053
    19  C    3.494618   3.351820   3.863862   4.831724   5.806032
    20  C    4.764908   4.569543   4.896658   6.193743   7.078620
    21  H    5.594438   5.453995   5.814763   6.948071   7.817985
    22  H    5.140025   4.722406   5.254736   6.591114   7.591615
    23  H    4.898524   4.848896   4.797347   6.364050   7.058319
    24  C    2.509508   2.734678   2.745240   3.861043   4.630955
    25  H    2.950413   3.314962   2.770647   4.315749   4.806645
    26  C    1.531935   2.166535   2.168983   2.528999   3.321985
    27  H    2.168989   3.074729   2.515532   2.782723   3.067276
    28  H    2.170852   2.556394   3.077894   2.754312   3.731408
                    6          7          8          9         10
     6  H    0.000000
     7  H    1.766344   0.000000
     8  H    1.777660   1.767076   0.000000
     9  C    3.200160   2.611243   3.191597   0.000000
    10  H    3.420808   2.316571   3.406927   1.089711   0.000000
    11  C    4.548548   4.105117   4.550950   1.496085   2.178943
    12  H    4.754558   4.683784   4.818966   2.176056   3.098488
    13  H    5.022074   4.553233   5.301956   2.127659   2.463641
    14  H    5.281120   4.589718   4.954547   2.132374   2.568147
    15  C    6.161588   7.083154   6.732221   5.340882   6.354207
    16  H    6.761642   7.767252   7.534745   6.101504   7.054307
    17  H    6.941558   7.726996   7.299546   5.785457   6.821401
    18  H    5.563811   6.308120   6.163786   4.408728   5.384140
    19  C    5.603744   6.767045   6.108817   5.477457   6.517024
    20  C    6.839511   8.091775   7.244998   6.907944   7.961284
    21  H    7.483421   8.800102   8.074669   7.609032   8.636526
    22  H    7.490163   8.596518   7.695750   7.206155   8.287814
    23  H    6.759933   8.118230   7.097205   7.248314   8.280708
    24  C    4.365085   5.639982   4.886188   4.746980   5.741196
    25  H    4.461835   5.874603   4.864598   5.387488   6.337761
    26  C    3.082630   4.255054   3.801369   3.422357   4.345045
    27  H    2.487037   3.982269   3.578895   3.827726   4.572729
    28  H    3.519241   4.480046   4.428418   3.248881   4.133386
                   11         12         13         14         15
    11  C    0.000000
    12  H    1.092190   0.000000
    13  H    1.094825   1.761420   0.000000
    14  H    1.094177   1.773956   1.772297   0.000000
    15  C    4.789258   3.771839   5.048040   5.520440   0.000000
    16  H    5.548119   4.590302   5.633249   6.343699   1.094797
    17  H    5.033221   3.953494   5.347764   5.584519   1.095423
    18  H    3.792911   2.825525   3.975625   4.587997   1.092282
    19  C    5.288153   4.330835   5.752300   6.025060   1.503875
    20  C    6.696584   5.699807   7.196443   7.349431   2.528880
    21  H    7.348864   6.350143   7.720680   8.066271   2.788417
    22  H    6.835141   5.788728   7.385915   7.352878   2.794705
    23  H    7.232812   6.298635   7.817026   7.878112   3.484255
    24  C    4.915435   4.130761   5.478966   5.699118   2.530790
    25  H    5.743195   5.026207   6.386731   6.471918   3.499852
    26  C    3.835854   3.291712   4.355704   4.725606   3.130582
    27  H    4.538360   4.178886   4.976467   5.463708   4.010328
    28  H    3.406617   2.857474   3.684993   4.411408   2.786997
                   16         17         18         19         20
    16  H    0.000000
    17  H    1.775628   0.000000
    18  H    1.769055   1.756048   0.000000
    19  C    2.142882   2.142759   2.181993   0.000000
    20  C    2.840505   2.735268   3.487244   1.506546   0.000000
    21  H    2.660815   3.062670   3.822399   2.146587   1.094950
    22  H    3.237165   2.551928   3.764760   2.147564   1.094867
    23  H    3.828180   3.755786   4.334050   2.173195   1.095064
    24  C    3.200305   3.266411   2.717100   1.347389   2.480895
    25  H    4.102718   4.140136   3.796316   2.098329   2.656181
    26  C    3.797117   3.945577   2.746386   2.560897   3.924220
    27  H    4.502133   4.915900   3.675521   3.304513   4.520705
    28  H    3.310820   3.677633   2.130644   2.754981   4.237336
                   21         22         23         24         25
    21  H    0.000000
    22  H    1.777958   0.000000
    23  H    1.767866   1.768009   0.000000
    24  C    3.199825   3.190435   2.613767   0.000000
    25  H    3.423591   3.402179   2.317755   1.090137   0.000000
    26  C    4.555107   4.560603   4.116928   1.505591   2.188006
    27  H    5.051998   5.300802   4.532045   2.116239   2.403451
    28  H    4.698034   4.850358   4.660774   2.162275   3.072559
                   26         27         28
    26  C    0.000000
    27  H    1.097352   0.000000
    28  H    1.094934   1.745409   0.000000
 Stoichiometry    C10H18
 Framework group  C1[X(C10H18)]
 Deg. of freedom    78
 Full point group                 C1      NOp   1
 Largest Abelian subgroup         C1      NOp   1
 Largest concise Abelian subgroup C1      NOp   1
                         Standard orientation:                         
 ---------------------------------------------------------------------
 Center     Atomic      Atomic             Coordinates (Angstroms)
 Number     Number       Type             X           Y           Z
 ---------------------------------------------------------------------
      1          6           0       -0.793778   -0.586465    0.589161
      2          1           0       -0.484654    0.235293    1.246106
      3          1           0       -0.745966   -1.484306    1.219987
      4          6           0       -2.220941   -0.386945    0.121996
      5          6           0       -2.975655   -1.655048   -0.184572
      6          1           0       -2.478680   -2.212198   -0.984905
      7          1           0       -4.003206   -1.458159   -0.508232
      8          1           0       -3.025288   -2.291755    0.704760
      9          6           0       -2.820204    0.813934   -0.001588
     10          1           0       -3.860394    0.846710   -0.324697
     11          6           0       -2.215667    2.161870    0.234786
     12          1           0       -1.137425    2.131960    0.406192
     13          1           0       -2.388740    2.797203   -0.639880
     14          1           0       -2.690853    2.635746    1.098998
     15          6           0        2.465997    1.425896   -0.456128
     16          1           0        3.076438    1.626096   -1.342616
     17          1           0        2.815307    2.072779    0.355954
     18          1           0        1.439644    1.725963   -0.678924
     19          6           0        2.593396   -0.018222   -0.056214
     20          6           0        3.965116   -0.407984    0.429737
     21          1           0        4.709028   -0.227425   -0.353149
     22          1           0        4.236988    0.181234    1.311577
     23          1           0        4.023719   -1.466037    0.705880
     24          6           0        1.596331   -0.923551   -0.097413
     25          1           0        1.803978   -1.940171    0.236903
     26          6           0        0.185916   -0.715615   -0.581457
     27          1           0       -0.084202   -1.577130   -1.205163
     28          1           0        0.111239    0.156980   -1.238634
 ---------------------------------------------------------------------
 Rotational constants (GHZ):           2.2181110           0.5802329           0.4854248
 Leave Link  202 at Fri Sep 17 13:32:39 2021, MaxMem=   524288000 cpu:               0.0 elap:               0.0
 (Enter /opt/gaussian/g16_legacy/l301.exe)
 Standard basis: 6-31G(d,p) (6D, 7F)
 Ernie: Thresh=  0.10000D-02 Tol=  0.10000D-05 Strict=F.
 There are   240 symmetry adapted cartesian basis functions of A   symmetry.
 There are   240 symmetry adapted basis functions of A   symmetry.
   240 basis functions,   406 primitive gaussians,   240 cartesian basis functions
    39 alpha electrons       39 beta electrons
       nuclear repulsion energy       516.4365294807 Hartrees.
 IExCor=    0 DFT=F Ex=HF Corr=None ExCW=0 ScaHFX=  1.000000
 ScaDFX=  1.000000  1.000000  1.000000  1.000000 ScalE2=  1.000000  1.000000
 IRadAn=      5 IRanWt=     -1 IRanGd=            0 ICorTp=0 IEmpDi=  4
 NAtoms=   28 NActive=   28 NUniq=   28 SFac= 1.00D+00 NAtFMM=   60 NAOKFM=F Big=F
 Integral buffers will be    131072 words long.
 Raffenetti 1 integral format.
 Two-electron integral symmetry is turned on.
 Leave Link  301 at Fri Sep 17 13:32:39 2021, MaxMem=   524288000 cpu:               0.1 elap:               0.1
 (Enter /opt/gaussian/g16_legacy/l302.exe)
 NPDir=0 NMtPBC=     1 NCelOv=     1 NCel=       1 NClECP=     1 NCelD=      1
         NCelK=      1 NCelE2=     1 NClLst=     1 CellRange=     0.0.
 One-electron integrals computed using PRISM.
 One-electron integral symmetry used in STVInt
 NBasis=   240 RedAO= T EigKep=  2.10D-03  NBF=   240
 NBsUse=   240 1.00D-06 EigRej= -1.00D+00 NBFU=   240
 Leave Link  302 at Fri Sep 17 13:32:39 2021, MaxMem=   524288000 cpu:               0.3 elap:               0.3
 (Enter /opt/gaussian/g16_legacy/l303.exe)
 DipDrv:  MaxL=1.
 Leave Link  303 at Fri Sep 17 13:32:39 2021, MaxMem=   524288000 cpu:               0.1 elap:               0.1
 (Enter /opt/gaussian/g16_legacy/l401.exe)
 ExpMin= 1.61D-01 ExpMax= 3.05D+03 ExpMxC= 4.57D+02 IAcc=3 IRadAn=         5 AccDes= 0.00D+00
 Harris functional with IExCor=  205 and IRadAn=       5 diagonalized for initial guess.
 HarFok:  IExCor=  205 AccDes= 0.00D+00 IRadAn=         5 IDoV= 1 UseB2=F ITyADJ=14
 ICtDFT=  3500011 ScaDFX=  1.000000  1.000000  1.000000  1.000000
 FoFCou: FMM=F IPFlag=           0 FMFlag=      100000 FMFlg1=           0
         NFxFlg=           0 DoJE=T BraDBF=F KetDBF=T FulRan=T
         wScrn=  0.000000 ICntrl=       500 IOpCl=  0 I1Cent=   200000004 NGrid=           0
         NMat0=    1 NMatS0=      1 NMatT0=    0 NMatD0=    1 NMtDS0=    0 NMtDT0=    0
 Petite list used in FoFCou.
 Harris En= -390.109914786072    
 JPrj=0 DoOrth=F DoCkMO=F.
 Leave Link  401 at Fri Sep 17 13:32:50 2021, MaxMem=   524288000 cpu:              11.0 elap:              11.0
 (Enter /opt/gaussian/g16_legacy/l502.exe)
 Keep R1 ints in memory in canonical form, NReq=425198025.
 FoFCou: FMM=F IPFlag=           0 FMFlag=           0 FMFlg1=           0
         NFxFlg=           0 DoJE=F BraDBF=F KetDBF=F FulRan=T
         wScrn=  0.000000 ICntrl=       600 IOpCl=  0 I1Cent=           0 NGrid=           0
         NMat0=    1 NMatS0=  28920 NMatT0=    0 NMatD0=    1 NMtDS0=    0 NMtDT0=    0
 Symmetry not used in FoFCou.
 Two-electron integral symmetry not used.
 Closed shell SCF:
 Using DIIS extrapolation, IDIIS=  1040.
 NGot=   524288000 LenX=   105970886 LenY=   105912845
 Requested convergence on RMS density matrix=1.00D-08 within 128 cycles.
 Requested convergence on MAX density matrix=1.00D-06.
 Requested convergence on             energy=1.00D-06.
 No special actions if energy rises.

 Cycle   1  Pass 1  IDiag  1:
 E= -388.533172054088    
 DIIS: error= 5.21D-02 at cycle   1 NSaved=   1.
 NSaved= 1 IEnMin= 1 EnMin= -388.533172054088     IErMin= 1 ErrMin= 5.21D-02
 ErrMax= 5.21D-02  0.00D+00 EMaxC= 1.00D-01 BMatC= 8.07D-01 BMatP= 8.07D-01
 IDIUse=3 WtCom= 4.79D-01 WtEn= 5.21D-01
 Coeff-Com:  0.100D+01
 Coeff-En:   0.100D+01
 Coeff:      0.100D+01
 Gap=     0.508 Goal=   None    Shift=    0.000
 GapD=    0.508 DampG=2.000 DampE=0.500 DampFc=1.0000 IDamp=-1.
 RMSDP=4.00D-03 MaxDP=1.14D-01              OVMax= 1.33D-01

 Cycle   2  Pass 1  IDiag  1:
 E= -389.073878466129     Delta-E=       -0.540706412040 Rises=F Damp=F
 DIIS: error= 1.59D-02 at cycle   2 NSaved=   2.
 NSaved= 2 IEnMin= 2 EnMin= -389.073878466129     IErMin= 2 ErrMin= 1.59D-02
 ErrMax= 1.59D-02  0.00D+00 EMaxC= 1.00D-01 BMatC= 8.66D-02 BMatP= 8.07D-01
 IDIUse=3 WtCom= 8.41D-01 WtEn= 1.59D-01
 Coeff-Com:  0.183D+00 0.817D+00
 Coeff-En:   0.000D+00 0.100D+01
 Coeff:      0.154D+00 0.846D+00
 Gap=     0.549 Goal=   None    Shift=    0.000
 RMSDP=1.63D-03 MaxDP=3.04D-02 DE=-5.41D-01 OVMax= 4.61D-02

 Cycle   3  Pass 1  IDiag  1:
 E= -389.151438395387     Delta-E=       -0.077559929258 Rises=F Damp=F
 DIIS: error= 3.43D-03 at cycle   3 NSaved=   3.
 NSaved= 3 IEnMin= 3 EnMin= -389.151438395387     IErMin= 3 ErrMin= 3.43D-03
 ErrMax= 3.43D-03  0.00D+00 EMaxC= 1.00D-01 BMatC= 3.14D-03 BMatP= 8.66D-02
 IDIUse=3 WtCom= 9.66D-01 WtEn= 3.43D-02
 Coeff-Com: -0.245D-01 0.106D+00 0.919D+00
 Coeff-En:   0.000D+00 0.000D+00 0.100D+01
 Coeff:     -0.236D-01 0.102D+00 0.921D+00
 Gap=     0.499 Goal=   None    Shift=    0.000
 RMSDP=2.59D-04 MaxDP=7.14D-03 DE=-7.76D-02 OVMax= 1.01D-02

 Cycle   4  Pass 1  IDiag  1:
 E= -389.155063957420     Delta-E=       -0.003625562033 Rises=F Damp=F
 DIIS: error= 5.31D-04 at cycle   4 NSaved=   4.
 NSaved= 4 IEnMin= 4 EnMin= -389.155063957420     IErMin= 4 ErrMin= 5.31D-04
 ErrMax= 5.31D-04  0.00D+00 EMaxC= 1.00D-01 BMatC= 9.29D-05 BMatP= 3.14D-03
 IDIUse=3 WtCom= 9.95D-01 WtEn= 5.31D-03
 Coeff-Com: -0.424D-02-0.189D-02 0.950D-01 0.911D+00
 Coeff-En:   0.000D+00 0.000D+00 0.000D+00 0.100D+01
 Coeff:     -0.422D-02-0.188D-02 0.945D-01 0.912D+00
 Gap=     0.499 Goal=   None    Shift=    0.000
 RMSDP=7.39D-05 MaxDP=1.49D-03 DE=-3.63D-03 OVMax= 3.14D-03

 Cycle   5  Pass 1  IDiag  1:
 E= -389.155188297582     Delta-E=       -0.000124340162 Rises=F Damp=F
 DIIS: error= 1.63D-04 at cycle   5 NSaved=   5.
 NSaved= 5 IEnMin= 5 EnMin= -389.155188297582     IErMin= 5 ErrMin= 1.63D-04
 ErrMax= 1.63D-04  0.00D+00 EMaxC= 1.00D-01 BMatC= 1.60D-05 BMatP= 9.29D-05
 IDIUse=3 WtCom= 9.98D-01 WtEn= 1.63D-03
 Coeff-Com:  0.241D-02-0.152D-01-0.102D+00 0.176D+00 0.939D+00
 Coeff-En:   0.000D+00 0.000D+00 0.000D+00 0.000D+00 0.100D+01
 Coeff:      0.241D-02-0.152D-01-0.102D+00 0.175D+00 0.939D+00
 Gap=     0.500 Goal=   None    Shift=    0.000
 RMSDP=3.00D-05 MaxDP=6.56D-04 DE=-1.24D-04 OVMax= 9.23D-04

 Cycle   6  Pass 1  IDiag  1:
 E= -389.155209779613     Delta-E=       -0.000021482031 Rises=F Damp=F
 DIIS: error= 3.58D-05 at cycle   6 NSaved=   6.
 NSaved= 6 IEnMin= 6 EnMin= -389.155209779613     IErMin= 6 ErrMin= 3.58D-05
 ErrMax= 3.58D-05  0.00D+00 EMaxC= 1.00D-01 BMatC= 5.50D-07 BMatP= 1.60D-05
 IDIUse=1 WtCom= 1.00D+00 WtEn= 0.00D+00
 Coeff-Com:  0.720D-03-0.335D-02-0.261D-01-0.434D-02 0.177D+00 0.856D+00
 Coeff:      0.720D-03-0.335D-02-0.261D-01-0.434D-02 0.177D+00 0.856D+00
 Gap=     0.500 Goal=   None    Shift=    0.000
 RMSDP=5.30D-06 MaxDP=1.61D-04 DE=-2.15D-05 OVMax= 3.23D-04

 Cycle   7  Pass 1  IDiag  1:
 E= -389.155210620561     Delta-E=       -0.000000840947 Rises=F Damp=F
 DIIS: error= 1.03D-05 at cycle   7 NSaved=   7.
 NSaved= 7 IEnMin= 7 EnMin= -389.155210620561     IErMin= 7 ErrMin= 1.03D-05
 ErrMax= 1.03D-05  0.00D+00 EMaxC= 1.00D-01 BMatC= 5.44D-08 BMatP= 5.50D-07
 IDIUse=1 WtCom= 1.00D+00 WtEn= 0.00D+00
 Coeff-Com: -0.494D-04 0.463D-03 0.301D-02-0.105D-01-0.468D-01 0.145D+00
 Coeff-Com:  0.909D+00
 Coeff:     -0.494D-04 0.463D-03 0.301D-02-0.105D-01-0.468D-01 0.145D+00
 Coeff:      0.909D+00
 Gap=     0.500 Goal=   None    Shift=    0.000
 RMSDP=1.71D-06 MaxDP=4.10D-05 DE=-8.41D-07 OVMax= 8.42D-05

 Cycle   8  Pass 1  IDiag  1:
 E= -389.155210709460     Delta-E=       -0.000000088899 Rises=F Damp=F
 DIIS: error= 3.51D-06 at cycle   8 NSaved=   8.
 NSaved= 8 IEnMin= 8 EnMin= -389.155210709460     IErMin= 8 ErrMin= 3.51D-06
 ErrMax= 3.51D-06  0.00D+00 EMaxC= 1.00D-01 BMatC= 5.09D-09 BMatP= 5.44D-08
 IDIUse=1 WtCom= 1.00D+00 WtEn= 0.00D+00
 Coeff-Com: -0.581D-04 0.249D-03 0.208D-02 0.315D-02-0.171D-01-0.804D-01
 Coeff-Com: -0.123D+00 0.121D+01
 Coeff:     -0.581D-04 0.249D-03 0.208D-02 0.315D-02-0.171D-01-0.804D-01
 Coeff:     -0.123D+00 0.121D+01
 Gap=     0.500 Goal=   None    Shift=    0.000
 RMSDP=7.85D-07 MaxDP=2.40D-05 DE=-8.89D-08 OVMax= 5.80D-05

 Cycle   9  Pass 1  IDiag  1:
 E= -389.155210725313     Delta-E=       -0.000000015853 Rises=F Damp=F
 DIIS: error= 1.46D-06 at cycle   9 NSaved=   9.
 NSaved= 9 IEnMin= 9 EnMin= -389.155210725313     IErMin= 9 ErrMin= 1.46D-06
 ErrMax= 1.46D-06  0.00D+00 EMaxC= 1.00D-01 BMatC= 7.38D-10 BMatP= 5.09D-09
 IDIUse=1 WtCom= 1.00D+00 WtEn= 0.00D+00
 Coeff-Com:  0.928D-05-0.690D-04-0.480D-03 0.144D-02 0.385D-02 0.847D-04
 Coeff-Com: -0.865D-01-0.120D+00 0.120D+01
 Coeff:      0.928D-05-0.690D-04-0.480D-03 0.144D-02 0.385D-02 0.847D-04
 Coeff:     -0.865D-01-0.120D+00 0.120D+01
 Gap=     0.500 Goal=   None    Shift=    0.000
 RMSDP=2.99D-07 MaxDP=1.24D-05 DE=-1.59D-08 OVMax= 2.71D-05

 Cycle  10  Pass 1  IDiag  1:
 E= -389.155210727735     Delta-E=       -0.000000002422 Rises=F Damp=F
 DIIS: error= 3.97D-07 at cycle  10 NSaved=  10.
 NSaved=10 IEnMin=10 EnMin= -389.155210727735     IErMin=10 ErrMin= 3.97D-07
 ErrMax= 3.97D-07  0.00D+00 EMaxC= 1.00D-01 BMatC= 1.21D-10 BMatP= 7.38D-10
 IDIUse=1 WtCom= 1.00D+00 WtEn= 0.00D+00
 Coeff-Com:  0.952D-05-0.464D-04-0.369D-03-0.135D-03 0.233D-02 0.142D-01
 Coeff-Com:  0.595D-02-0.211D+00 0.143D+00 0.105D+01
 Coeff:      0.952D-05-0.464D-04-0.369D-03-0.135D-03 0.233D-02 0.142D-01
 Coeff:      0.595D-02-0.211D+00 0.143D+00 0.105D+01
 Gap=     0.500 Goal=   None    Shift=    0.000
 RMSDP=1.24D-07 MaxDP=3.06D-06 DE=-2.42D-09 OVMax= 9.87D-06

 Cycle  11  Pass 1  IDiag  1:
 E= -389.155210728065     Delta-E=       -0.000000000329 Rises=F Damp=F
 DIIS: error= 1.55D-07 at cycle  11 NSaved=  11.
 NSaved=11 IEnMin=11 EnMin= -389.155210728065     IErMin=11 ErrMin= 1.55D-07
 ErrMax= 1.55D-07  0.00D+00 EMaxC= 1.00D-01 BMatC= 9.54D-12 BMatP= 1.21D-10
 IDIUse=1 WtCom= 1.00D+00 WtEn= 0.00D+00
 Coeff-Com:  0.395D-06 0.836D-06 0.989D-06-0.149D-03-0.305D-03 0.278D-02
 Coeff-Com:  0.110D-01-0.153D-01-0.107D+00 0.164D+00 0.945D+00
 Coeff:      0.395D-06 0.836D-06 0.989D-06-0.149D-03-0.305D-03 0.278D-02
 Coeff:      0.110D-01-0.153D-01-0.107D+00 0.164D+00 0.945D+00
 Gap=     0.500 Goal=   None    Shift=    0.000
 RMSDP=2.76D-08 MaxDP=1.16D-06 DE=-3.29D-10 OVMax= 2.51D-06

 Cycle  12  Pass 1  IDiag  1:
 E= -389.155210728094     Delta-E=       -0.000000000030 Rises=F Damp=F
 DIIS: error= 3.64D-08 at cycle  12 NSaved=  12.
 NSaved=12 IEnMin=12 EnMin= -389.155210728094     IErMin=12 ErrMin= 3.64D-08
 ErrMax= 3.64D-08  0.00D+00 EMaxC= 1.00D-01 BMatC= 1.17D-12 BMatP= 9.54D-12
 IDIUse=1 WtCom= 1.00D+00 WtEn= 0.00D+00
 Coeff-Com: -0.102D-05 0.547D-05 0.429D-04 0.325D-05-0.343D-03-0.126D-02
 Coeff-Com:  0.366D-03 0.217D-01-0.321D-01-0.113D+00 0.982D-01 0.103D+01
 Coeff:     -0.102D-05 0.547D-05 0.429D-04 0.325D-05-0.343D-03-0.126D-02
 Coeff:      0.366D-03 0.217D-01-0.321D-01-0.113D+00 0.982D-01 0.103D+01
 Gap=     0.500 Goal=   None    Shift=    0.000
 RMSDP=1.18D-08 MaxDP=3.33D-07 DE=-2.96D-11 OVMax= 8.46D-07

 Cycle  13  Pass 1  IDiag  1:
 E= -389.155210728078     Delta-E=        0.000000000016 Rises=F Damp=F
 DIIS: error= 1.06D-08 at cycle  13 NSaved=  13.
 NSaved=13 IEnMin=12 EnMin= -389.155210728094     IErMin=13 ErrMin= 1.06D-08
 ErrMax= 1.06D-08  0.00D+00 EMaxC= 1.00D-01 BMatC= 5.47D-14 BMatP= 1.17D-12
 IDIUse=1 WtCom= 1.00D+00 WtEn= 0.00D+00
 Coeff-Com: -0.122D-06 0.462D-06 0.389D-05 0.136D-04-0.170D-04-0.298D-03
 Coeff-Com: -0.849D-03 0.352D-02 0.516D-02-0.212D-01-0.612D-01 0.111D+00
 Coeff-Com:  0.964D+00
 Coeff:     -0.122D-06 0.462D-06 0.389D-05 0.136D-04-0.170D-04-0.298D-03
 Coeff:     -0.849D-03 0.352D-02 0.516D-02-0.212D-01-0.612D-01 0.111D+00
 Coeff:      0.964D+00
 Gap=     0.500 Goal=   None    Shift=    0.000
 RMSDP=2.13D-09 MaxDP=7.03D-08 DE= 1.63D-11 OVMax= 1.05D-07

 SCF Done:  E(RHF) =  -389.155210728     A.U. after   13 cycles
            NFock= 13  Conv=0.21D-08     -V/T= 2.0014
 KE= 3.886262882100D+02 PE=-1.937507216100D+03 EE= 6.432891876814D+02
 Leave Link  502 at Fri Sep 17 13:33:25 2021, MaxMem=   524288000 cpu:              34.4 elap:              34.4
 (Enter /opt/gaussian/g16_legacy/l801.exe)
 ExpMin= 1.61D-01 ExpMax= 3.05D+03 ExpMxC= 4.57D+02 IAcc=3 IRadAn=         5 AccDes= 0.00D+00
 HarFok:  IExCor=  205 AccDes= 0.00D+00 IRadAn=         5 IDoV=-2 UseB2=F ITyADJ=14
 ICtDFT= 12500011 ScaDFX=  1.000000  1.000000  1.000000  1.000000
 Largest valence mixing into a core orbital is  1.98D-04
 Largest core mixing into a valence orbital is  3.52D-05
 Range of M.O.s used for correlation:    11   240
 NBasis=   240 NAE=    39 NBE=    39 NFC=    10 NFV=     0
 NROrb=    230 NOA=    29 NOB=    29 NVA=   201 NVB=   201
 Leave Link  801 at Fri Sep 17 13:33:26 2021, MaxMem=   524288000 cpu:               1.5 elap:               1.5
 (Enter /opt/gaussian/g16_legacy/l906.exe)
 Frozen-core derivative calculation, NFC=  10 NFV=   0.
 FulOut=F Deriv=T AODrv=T NAtomX=    28
   MMem=          88  MDisk=          29 MDiskD=          29
  W3Min=     2246400 MinDsk=     2795480 NBas6D=         240
 NBas2D=       29244    NTT=       28920    LW2=     2040000
    MDV=   523626386 MDiskM=       30186 NBas2p=       24383
 Fully direct method using O(ONN) memory.
 IMap=   1   2   3   4   5   6   7   8   9  10  11  12  13  14  15  16  17  18  19  20
 IMap=  21  22  23  24  25  26  27  28  29  30  31  32  33  34  35  36  37  38  39
 JobTyp=1 Pass  1:  I=  11 to  39 NPSUse=  1 ParTrn=F ParDer=F DoDerP=T.
 Spin components of T(2) and E(2):
     alpha-alpha T2 =       0.5715097511D-01 E2=     -0.1638023700D+00
     alpha-beta  T2 =       0.3618113597D+00 E2=     -0.1089334978D+01
     beta-beta   T2 =       0.5715097511D-01 E2=     -0.1638023700D+00
 The integrals were generated   1 times.
 ANorm=    0.1214954036D+01
 E2 =    -0.1416939718D+01 EUMP2 =    -0.39057215044587D+03
 Leave Link  906 at Fri Sep 17 13:37:44 2021, MaxMem=   524288000 cpu:             258.1 elap:             258.2
 (Enter /opt/gaussian/g16_legacy/l1002.exe)
 Minotr:  Closed shell wavefunction.
          Computing MP2/KS-MP2 derivatives.
          Using Z-Vector for PSCF gradient.
          Skipping F1 and S1 gradient terms here.
          IDoAtm=1111111111111111111111111111
          Frozen-core window.
          Direct CPHF calculation.
          Differentiating once with respect to electric field.
                with respect to dipole field.
          Differentiating once with respect to nuclear coordinates.
          Requested convergence is 1.0D-10 RMS, and 1.0D-09 maximum.
          NewPWx=F KeepS1=T KeepF1=T KeepIn=T MapXYZ=F SortEE=F KeepMc=T.
 Keep R1 ints in memory in canonical form, NReq=425201067.
 FoFCou: FMM=F IPFlag=           0 FMFlag=           0 FMFlg1=           0
         NFxFlg=           0 DoJE=F BraDBF=F KetDBF=F FulRan=T
         wScrn=  0.000000 ICntrl=       600 IOpCl=  0 I1Cent=           0 NGrid=           0
         NMat0=    1 NMatS0=  28920 NMatT0=    0 NMatD0=    1 NMtDS0=    0 NMtDT0=    0
 Symmetry not used in FoFCou.
 Two-electron integral symmetry not used.
          MDV=     524288000 using IRadAn=       5.
          Solving linear equations separately, MaxMat=       0.
          There are     1 degrees of freedom in the 1st order CPHF.  IDoFFX=0 NUNeed=     1.
 LinEq1:  Iter=  0 NonCon=     1 RMS=2.55D-03 Max=3.76D-02 NDo=     1
 AX will form     1 AO Fock derivatives at one time.
 LinEq1:  Iter=  1 NonCon=     1 RMS=6.90D-04 Max=9.74D-03 NDo=     1
 LinEq1:  Iter=  2 NonCon=     1 RMS=1.61D-04 Max=4.14D-03 NDo=     1
 LinEq1:  Iter=  3 NonCon=     1 RMS=4.31D-05 Max=5.08D-04 NDo=     1
 LinEq1:  Iter=  4 NonCon=     1 RMS=1.99D-05 Max=8.55D-04 NDo=     1
 LinEq1:  Iter=  5 NonCon=     1 RMS=5.06D-06 Max=8.26D-05 NDo=     1
 LinEq1:  Iter=  6 NonCon=     1 RMS=1.63D-06 Max=2.68D-05 NDo=     1
 LinEq1:  Iter=  7 NonCon=     1 RMS=4.13D-07 Max=4.19D-06 NDo=     1
 LinEq1:  Iter=  8 NonCon=     1 RMS=1.01D-07 Max=1.86D-06 NDo=     1
 LinEq1:  Iter=  9 NonCon=     1 RMS=2.33D-08 Max=6.32D-07 NDo=     1
 LinEq1:  Iter= 10 NonCon=     1 RMS=6.42D-09 Max=1.62D-07 NDo=     1
 LinEq1:  Iter= 11 NonCon=     1 RMS=1.89D-09 Max=3.63D-08 NDo=     1
 LinEq1:  Iter= 12 NonCon=     1 RMS=4.11D-10 Max=6.92D-09 NDo=     1
 LinEq1:  Iter= 13 NonCon=     1 RMS=1.03D-10 Max=9.14D-10 NDo=     1
 LinEq1:  Iter= 14 NonCon=     1 RMS=3.85D-11 Max=1.32D-09 NDo=     1
 LinEq1:  Iter= 15 NonCon=     0 RMS=1.18D-11 Max=1.67D-10 NDo=     1
 Linear equations converged to 1.000D-10 1.000D-09 after    15 iterations.
 End of Minotr F.D. properties file   721 does not exist.
 End of Minotr F.D. properties file   722 does not exist.
 End of Minotr F.D. properties file   788 does not exist.
 Leave Link 1002 at Fri Sep 17 13:38:23 2021, MaxMem=   524288000 cpu:              39.1 elap:              39.1
 (Enter /opt/gaussian/g16_legacy/l601.exe)
 Copying SCF densities to generalized density rwf, IOpCl= 0 IROHF=0.

 **********************************************************************

            Population analysis using the SCF density.

 **********************************************************************

 Orbital symmetries:
       Occupied  (A) (A) (A) (A) (A) (A) (A) (A) (A) (A) (A) (A)
                 (A) (A) (A) (A) (A) (A) (A) (A) (A) (A) (A) (A)
                 (A) (A) (A) (A) (A) (A) (A) (A) (A) (A) (A) (A)
                 (A) (A) (A)
       Virtual   (A) (A) (A) (A) (A) (A) (A) (A) (A) (A) (A) (A)
                 (A) (A) (A) (A) (A) (A) (A) (A) (A) (A) (A) (A)
                 (A) (A) (A) (A) (A) (A) (A) (A) (A) (A) (A) (A)
                 (A) (A) (A) (A) (A) (A) (A) (A) (A) (A) (A) (A)
                 (A) (A) (A) (A) (A) (A) (A) (A) (A) (A) (A) (A)
                 (A) (A) (A) (A) (A) (A) (A) (A) (A) (A) (A) (A)
                 (A) (A) (A) (A) (A) (A) (A) (A) (A) (A) (A) (A)
                 (A) (A) (A) (A) (A) (A) (A) (A) (A) (A) (A) (A)
                 (A) (A) (A) (A) (A) (A) (A) (A) (A) (A) (A) (A)
                 (A) (A) (A) (A) (A) (A) (A) (A) (A) (A) (A) (A)
                 (A) (A) (A) (A) (A) (A) (A) (A) (A) (A) (A) (A)
                 (A) (A) (A) (A) (A) (A) (A) (A) (A) (A) (A) (A)
                 (A) (A) (A) (A) (A) (A) (A) (A) (A) (A) (A) (A)
                 (A) (A) (A) (A) (A) (A) (A) (A) (A) (A) (A) (A)
                 (A) (A) (A) (A) (A) (A) (A) (A) (A) (A) (A) (A)
                 (A) (A) (A) (A) (A) (A) (A) (A) (A) (A) (A) (A)
                 (A) (A) (A) (A) (A) (A) (A) (A) (A)
 The electronic state is 1-A.
 Alpha  occ. eigenvalues --  -11.23060 -11.22505 -11.21999 -11.21920 -11.21883
 Alpha  occ. eigenvalues --  -11.21649 -11.21554 -11.21485 -11.21456 -11.21437
 Alpha  occ. eigenvalues --   -1.10623  -1.08327  -1.01912  -0.98013  -0.93647
 Alpha  occ. eigenvalues --   -0.91775  -0.86755  -0.82685  -0.70598  -0.69342
 Alpha  occ. eigenvalues --   -0.64585  -0.61545  -0.60101  -0.59031  -0.58088
 Alpha  occ. eigenvalues --   -0.56803  -0.55367  -0.55150  -0.53549  -0.51982
 Alpha  occ. eigenvalues --   -0.51716  -0.51321  -0.50593  -0.49230  -0.48275
 Alpha  occ. eigenvalues --   -0.46014  -0.44271  -0.33356  -0.31526
 Alpha virt. eigenvalues --    0.18457   0.19494   0.22038   0.24453   0.25183
 Alpha virt. eigenvalues --    0.27141   0.28395   0.28932   0.30249   0.30504
 Alpha virt. eigenvalues --    0.31238   0.32117   0.33135   0.33435   0.34031
 Alpha virt. eigenvalues --    0.35677   0.35774   0.36970   0.38999   0.40648
 Alpha virt. eigenvalues --    0.41064   0.42593   0.43321   0.44192   0.45149
 Alpha virt. eigenvalues --    0.51684   0.54045   0.61173   0.62445   0.70139
 Alpha virt. eigenvalues --    0.71101   0.71886   0.74280   0.76416   0.76615
 Alpha virt. eigenvalues --    0.76877   0.78795   0.79455   0.81139   0.82037
 Alpha virt. eigenvalues --    0.83811   0.85655   0.88078   0.91266   0.92027
 Alpha virt. eigenvalues --    0.92897   0.95178   0.97057   0.98263   0.99207
 Alpha virt. eigenvalues --    0.99751   1.00201   1.02302   1.03926   1.06182
 Alpha virt. eigenvalues --    1.07864   1.08640   1.08810   1.11199   1.12390
 Alpha virt. eigenvalues --    1.12560   1.13432   1.14583   1.14927   1.15820
 Alpha virt. eigenvalues --    1.16165   1.16404   1.18225   1.18705   1.20092
 Alpha virt. eigenvalues --    1.20663   1.22068   1.22854   1.25020   1.27541
 Alpha virt. eigenvalues --    1.34173   1.40671   1.41851   1.43740   1.45172
 Alpha virt. eigenvalues --    1.47559   1.53474   1.56256   1.56979   1.58247
 Alpha virt. eigenvalues --    1.59846   1.62721   1.65799   1.69519   1.70790
 Alpha virt. eigenvalues --    1.75331   1.82529   1.92032   1.92195   1.95497
 Alpha virt. eigenvalues --    1.98630   2.01126   2.02850   2.04184   2.08702
 Alpha virt. eigenvalues --    2.09245   2.11124   2.11380   2.13102   2.14507
 Alpha virt. eigenvalues --    2.15426   2.17689   2.19729   2.23578   2.27384
 Alpha virt. eigenvalues --    2.28339   2.29995   2.32201   2.34975   2.35568
 Alpha virt. eigenvalues --    2.35646   2.35782   2.39325   2.39851   2.40352
 Alpha virt. eigenvalues --    2.41283   2.41826   2.43037   2.45165   2.45388
 Alpha virt. eigenvalues --    2.47033   2.48341   2.49337   2.50339   2.54526
 Alpha virt. eigenvalues --    2.56587   2.57723   2.61276   2.62185   2.64354
 Alpha virt. eigenvalues --    2.66342   2.67160   2.72032   2.72996   2.73747
 Alpha virt. eigenvalues --    2.75719   2.77698   2.81092   2.82804   2.85162
 Alpha virt. eigenvalues --    2.87733   2.89155   2.91918   2.93441   2.94438
 Alpha virt. eigenvalues --    2.97095   2.99036   3.01164   3.02603   3.05104
 Alpha virt. eigenvalues --    3.05825   3.06632   3.08505   3.13018   3.15944
 Alpha virt. eigenvalues --    3.17139   3.18167   3.19616   3.20681   3.21269
 Alpha virt. eigenvalues --    3.23194   3.24414   3.26464   3.27247   3.36664
 Alpha virt. eigenvalues --    3.39075   3.44608   3.45621   3.55560   3.57297
 Alpha virt. eigenvalues --    3.58700   3.61056   3.66895   3.73955   3.78202
 Alpha virt. eigenvalues --    3.78871   3.80512   3.81329   3.82333   3.82839
 Alpha virt. eigenvalues --    3.84214   3.85753   3.87659   3.89510   3.91175
 Alpha virt. eigenvalues --    3.95901   4.59095   4.62634   4.74429   4.82816
 Alpha virt. eigenvalues --    4.88837   4.92669   4.93353   5.07550   5.10287
 Alpha virt. eigenvalues --    5.16869
          Condensed to atoms (all electrons):
               1          2          3          4          5          6
     1  C    5.001796   0.412358   0.413514   0.340289  -0.058748  -0.000534
     2  H    0.412358   0.571671  -0.030230  -0.040529   0.003238  -0.000030
     3  H    0.413514  -0.030230   0.588508  -0.045054  -0.004690  -0.000276
     4  C    0.340289  -0.040529  -0.045054   4.955075   0.349339  -0.045814
     5  C   -0.058748   0.003238  -0.004690   0.349339   4.896435   0.400285
     6  H   -0.000534  -0.000030  -0.000276  -0.045814   0.400285   0.594771
     7  H    0.003677  -0.000103   0.000081  -0.041418   0.406176  -0.028081
     8  H   -0.003551  -0.000016   0.002570  -0.043057   0.397384  -0.035014
     9  C   -0.044048  -0.002231   0.001917   0.698846  -0.045926  -0.001032
    10  H    0.003080   0.000060  -0.000114  -0.036533  -0.006481   0.000123
    11  C   -0.007063  -0.002135   0.000138  -0.050685   0.003424  -0.000100
    12  H   -0.001827  -0.001333   0.000004  -0.000418   0.000092   0.000000
    13  H    0.000232  -0.000034  -0.000010   0.000592  -0.000100   0.000015
    14  H    0.000227   0.000172   0.000028  -0.001412  -0.000116  -0.000005
    15  C    0.000597   0.000160  -0.000016  -0.000017  -0.000000  -0.000000
    16  H   -0.000041   0.000014   0.000000   0.000001  -0.000000   0.000000
    17  H    0.000077  -0.000076  -0.000001  -0.000002   0.000000   0.000000
    18  H   -0.000053  -0.000052  -0.000012  -0.000027  -0.000000   0.000000
    19  C   -0.003607   0.001046   0.000615   0.000006  -0.000002   0.000000
    20  C   -0.000101  -0.000042  -0.000000   0.000002  -0.000000  -0.000000
    21  H   -0.000004   0.000001   0.000000   0.000000  -0.000000   0.000000
    22  H    0.000022  -0.000005  -0.000001  -0.000000   0.000000   0.000000
    23  H   -0.000003  -0.000002   0.000002   0.000000  -0.000000  -0.000000
    24  C   -0.063063  -0.000807  -0.000609   0.006130  -0.000158  -0.000086
    25  H    0.000004   0.000213   0.001004  -0.000155   0.000010   0.000012
    26  C    0.326223  -0.039850  -0.044612  -0.057365  -0.000187   0.000811
    27  H   -0.045126   0.004290  -0.002605  -0.001851  -0.000392  -0.000187
    28  H   -0.040295  -0.002145   0.004204  -0.001439   0.000317  -0.000009
               7          8          9         10         11         12
     1  C    0.003677  -0.003551  -0.044048   0.003080  -0.007063  -0.001827
     2  H   -0.000103  -0.000016  -0.002231   0.000060  -0.002135  -0.001333
     3  H    0.000081   0.002570   0.001917  -0.000114   0.000138   0.000004
     4  C   -0.041418  -0.043057   0.698846  -0.036533  -0.050685  -0.000418
     5  C    0.406176   0.397384  -0.045926  -0.006481   0.003424   0.000092
     6  H   -0.028081  -0.035014  -0.001032   0.000123  -0.000100   0.000000
     7  H    0.571049  -0.027603  -0.002738   0.002223   0.000137   0.000004
     8  H   -0.027603   0.593592  -0.000427   0.000248  -0.000114  -0.000001
     9  C   -0.002738  -0.000427   4.939961   0.404867   0.337723  -0.041936
    10  H    0.002223   0.000248   0.404867   0.559363  -0.043631   0.003315
    11  C    0.000137  -0.000114   0.337723  -0.043631   4.906199   0.408024
    12  H    0.000004  -0.000001  -0.041936   0.003315   0.408024   0.573865
    13  H   -0.000009  -0.000004  -0.042842  -0.002646   0.403008  -0.030016
    14  H   -0.000004   0.000021  -0.044362  -0.000222   0.400029  -0.026846
    15  C   -0.000000  -0.000000   0.000010  -0.000000  -0.000097   0.000010
    16  H    0.000000   0.000000   0.000000   0.000000   0.000002  -0.000006
    17  H   -0.000000  -0.000000   0.000000  -0.000000  -0.000003   0.000034
    18  H    0.000000  -0.000000  -0.000032   0.000000   0.000040   0.000570
    19  C    0.000000   0.000000   0.000001   0.000000   0.000007  -0.000013
    20  C    0.000000  -0.000000  -0.000000   0.000000  -0.000000   0.000000
    21  H    0.000000   0.000000   0.000000   0.000000  -0.000000  -0.000000
    22  H   -0.000000  -0.000000  -0.000000  -0.000000   0.000000  -0.000000
    23  H    0.000000  -0.000000  -0.000000   0.000000   0.000000  -0.000000
    24  C    0.000003   0.000001   0.000070   0.000002  -0.000032   0.000003
    25  H   -0.000000  -0.000002  -0.000002  -0.000000   0.000000  -0.000001
    26  C   -0.000097   0.000027  -0.004366  -0.000116   0.000690  -0.000212
    27  H   -0.000025   0.000093   0.000514   0.000004  -0.000030  -0.000008
    28  H   -0.000010   0.000012   0.001215  -0.000044   0.000071  -0.000251
              13         14         15         16         17         18
     1  C    0.000232   0.000227   0.000597  -0.000041   0.000077  -0.000053
     2  H   -0.000034   0.000172   0.000160   0.000014  -0.000076  -0.000052
     3  H   -0.000010   0.000028  -0.000016   0.000000  -0.000001  -0.000012
     4  C    0.000592  -0.001412  -0.000017   0.000001  -0.000002  -0.000027
     5  C   -0.000100  -0.000116  -0.000000  -0.000000   0.000000  -0.000000
     6  H    0.000015  -0.000005  -0.000000   0.000000   0.000000   0.000000
     7  H   -0.000009  -0.000004  -0.000000   0.000000  -0.000000   0.000000
     8  H   -0.000004   0.000021  -0.000000   0.000000  -0.000000  -0.000000
     9  C   -0.042842  -0.044362   0.000010   0.000000   0.000000  -0.000032
    10  H   -0.002646  -0.000222  -0.000000   0.000000  -0.000000   0.000000
    11  C    0.403008   0.400029  -0.000097   0.000002  -0.000003   0.000040
    12  H   -0.030016  -0.026846   0.000010  -0.000006   0.000034   0.000570
    13  H    0.586805  -0.033284  -0.000004  -0.000000   0.000000   0.000042
    14  H   -0.033284   0.584253   0.000002   0.000000  -0.000000  -0.000008
    15  C   -0.000004   0.000002   4.909228   0.398272   0.402441   0.406153
    16  H   -0.000000   0.000000   0.398272   0.582519  -0.033093  -0.026273
    17  H    0.000000  -0.000000   0.402441  -0.033093   0.586213  -0.030023
    18  H    0.000042  -0.000008   0.406153  -0.026273  -0.030023   0.568182
    19  C    0.000000  -0.000000   0.348392  -0.043824  -0.043930  -0.037059
    20  C   -0.000000   0.000000  -0.065371  -0.001684  -0.003431   0.003678
    21  H   -0.000000   0.000000  -0.001104   0.002553  -0.000507  -0.000023
    22  H    0.000000  -0.000000  -0.002139  -0.000371   0.002847  -0.000072
    23  H   -0.000000  -0.000000   0.003694  -0.000079   0.000010  -0.000108
    24  C   -0.000004   0.000002  -0.043326  -0.000843   0.000449  -0.002870
    25  H    0.000000   0.000000   0.003365  -0.000126  -0.000110   0.000059
    26  C    0.000091  -0.000050  -0.007533   0.000188   0.000286  -0.001944
    27  H    0.000000  -0.000000   0.000169   0.000032  -0.000012   0.000031
    28  H   -0.000079   0.000023  -0.002064   0.000056  -0.000043  -0.001169
              19         20         21         22         23         24
     1  C   -0.003607  -0.000101  -0.000004   0.000022  -0.000003  -0.063063
     2  H    0.001046  -0.000042   0.000001  -0.000005  -0.000002  -0.000807
     3  H    0.000615  -0.000000   0.000000  -0.000001   0.000002  -0.000609
     4  C    0.000006   0.000002   0.000000  -0.000000   0.000000   0.006130
     5  C   -0.000002  -0.000000  -0.000000   0.000000  -0.000000  -0.000158
     6  H    0.000000  -0.000000   0.000000   0.000000  -0.000000  -0.000086
     7  H    0.000000   0.000000   0.000000  -0.000000   0.000000   0.000003
     8  H    0.000000  -0.000000   0.000000  -0.000000  -0.000000   0.000001
     9  C    0.000001  -0.000000   0.000000  -0.000000  -0.000000   0.000070
    10  H    0.000000   0.000000   0.000000  -0.000000   0.000000   0.000002
    11  C    0.000007  -0.000000  -0.000000   0.000000   0.000000  -0.000032
    12  H   -0.000013   0.000000  -0.000000  -0.000000  -0.000000   0.000003
    13  H    0.000000  -0.000000  -0.000000   0.000000  -0.000000  -0.000004
    14  H   -0.000000   0.000000   0.000000  -0.000000  -0.000000   0.000002
    15  C    0.348392  -0.065371  -0.001104  -0.002139   0.003694  -0.043326
    16  H   -0.043824  -0.001684   0.002553  -0.000371  -0.000079  -0.000843
    17  H   -0.043930  -0.003431  -0.000507   0.002847   0.000010   0.000449
    18  H   -0.037059   0.003678  -0.000023  -0.000072  -0.000108  -0.002870
    19  C    4.918231   0.352288  -0.045771  -0.044310  -0.040386   0.698180
    20  C    0.352288   4.903206   0.399265   0.396996   0.405431  -0.044862
    21  H   -0.045771   0.399265   0.593077  -0.034901  -0.027558  -0.001136
    22  H   -0.044310   0.396996  -0.034901   0.594292  -0.027369  -0.000546
    23  H   -0.040386   0.405431  -0.027558  -0.027369   0.568002  -0.002385
    24  C    0.698180  -0.044862  -0.001136  -0.000546  -0.002385   4.961518
    25  H   -0.036139  -0.006750   0.000150   0.000235   0.002176   0.402012
    26  C   -0.048263   0.003152  -0.000124  -0.000086   0.000146   0.339926
    27  H    0.000914  -0.000102   0.000012  -0.000002  -0.000011  -0.043343
    28  H    0.000823   0.000070   0.000004  -0.000004   0.000006  -0.043820
              25         26         27         28
     1  C    0.000004   0.326223  -0.045126  -0.040295
     2  H    0.000213  -0.039850   0.004290  -0.002145
     3  H    0.001004  -0.044612  -0.002605   0.004204
     4  C   -0.000155  -0.057365  -0.001851  -0.001439
     5  C    0.000010  -0.000187  -0.000392   0.000317
     6  H    0.000012   0.000811  -0.000187  -0.000009
     7  H   -0.000000  -0.000097  -0.000025  -0.000010
     8  H   -0.000002   0.000027   0.000093   0.000012
     9  C   -0.000002  -0.004366   0.000514   0.001215
    10  H   -0.000000  -0.000116   0.000004  -0.000044
    11  C    0.000000   0.000690  -0.000030   0.000071
    12  H   -0.000001  -0.000212  -0.000008  -0.000251
    13  H    0.000000   0.000091   0.000000  -0.000079
    14  H    0.000000  -0.000050  -0.000000   0.000023
    15  C    0.003365  -0.007533   0.000169  -0.002064
    16  H   -0.000126   0.000188   0.000032   0.000056
    17  H   -0.000110   0.000286  -0.000012  -0.000043
    18  H    0.000059  -0.001944   0.000031  -0.001169
    19  C   -0.036139  -0.048263   0.000914   0.000823
    20  C   -0.006750   0.003152  -0.000102   0.000070
    21  H    0.000150  -0.000124   0.000012   0.000004
    22  H    0.000235  -0.000086  -0.000002  -0.000004
    23  H    0.002176   0.000146  -0.000011   0.000006
    24  C    0.402012   0.339926  -0.043343  -0.043820
    25  H    0.558538  -0.041279  -0.003486   0.003231
    26  C   -0.041279   4.982316   0.413780   0.414875
    27  H   -0.003486   0.413780   0.588470  -0.029606
    28  H    0.003231   0.414875  -0.029606   0.571260
 Mulliken charges:
               1
     1  C   -0.234028
     2  H    0.126399
     3  H    0.115646
     4  C    0.015498
     5  C   -0.339896
     6  H    0.115151
     7  H    0.116737
     8  H    0.115841
     9  C   -0.155184
    10  H    0.116502
    11  C   -0.355601
    12  H    0.116948
    13  H    0.118246
    14  H    0.121552
    15  C   -0.350822
    16  H    0.122704
    17  H    0.118875
    18  H    0.120969
    19  C    0.022802
    20  C   -0.341744
    21  H    0.116065
    22  H    0.115416
    23  H    0.118432
    24  C   -0.160406
    25  H    0.117041
    26  C   -0.236429
    27  H    0.118476
    28  H    0.124811
 Sum of Mulliken charges =  -0.00000
 Mulliken charges with hydrogens summed into heavy atoms:
               1
     1  C    0.008017
     4  C    0.015498
     5  C    0.007833
     9  C   -0.038681
    11  C    0.001145
    15  C    0.011726
    19  C    0.022802
    20  C    0.008169
    24  C   -0.043365
    26  C    0.006857
 Electronic spatial extent (au):  <R**2>=           2423.6470
 Charge=              0.0000 electrons
 Dipole moment (field-independent basis, Debye):
    X=              0.2948    Y=              0.1262    Z=             -0.0060  Tot=              0.3208
 Quadrupole moment (field-independent basis, Debye-Ang):
   XX=            -64.5128   YY=            -63.6023   ZZ=            -67.0538
   XY=              0.6108   XZ=              0.8624   YZ=             -0.4855
 Traceless Quadrupole moment (field-independent basis, Debye-Ang):
   XX=              0.5435   YY=              1.4540   ZZ=             -1.9975
   XY=              0.6108   XZ=              0.8624   YZ=             -0.4855
 Octapole moment (field-independent basis, Debye-Ang**2):
  XXX=              1.3669  YYY=             -2.7201  ZZZ=              0.1845  XYY=             -0.5714
  XXY=              4.5355  XXZ=             -2.6525  XZZ=              1.5771  YZZ=              1.2270
  YYZ=              1.3708  XYZ=             -0.7523
 Hexadecapole moment (field-independent basis, Debye-Ang**3):
 XXXX=          -2492.3180 YYYY=           -696.1050 ZZZZ=           -174.8229 XXXY=             -2.3518
 XXXZ=             11.9295 YYYX=             -9.3550 YYYZ=             -3.0541 ZZZX=             -0.8370
 ZZZY=             -0.0648 XXYY=           -530.4603 XXZZ=           -456.3098 YYZZ=           -139.1724
 XXYZ=             -4.2465 YYXZ=              3.1958 ZZXY=              4.6998
 N-N= 5.164365294807D+02 E-N=-1.937507216213D+03  KE= 3.886262882100D+02
 No NMR shielding tensors so no spin-rotation constants.
 Leave Link  601 at Fri Sep 17 13:38:24 2021, MaxMem=   524288000 cpu:               0.3 elap:               0.3
 (Enter /opt/gaussian/g16_legacy/l701.exe)
 ... and contract with generalized density number  2.
 Compute integral first derivatives.
 Leave Link  701 at Fri Sep 17 13:38:24 2021, MaxMem=   524288000 cpu:               0.3 elap:               0.3
 (Enter /opt/gaussian/g16_legacy/l702.exe)
 L702 exits ... SP integral derivatives will be done elsewhere.
 Leave Link  702 at Fri Sep 17 13:38:24 2021, MaxMem=   524288000 cpu:               0.0 elap:               0.1
 (Enter /opt/gaussian/g16_legacy/l703.exe)
 Integral derivatives from FoFJK, PRISM(SPDF).
 Compute integral first derivatives, UseDBF=F ICtDFT=           0.
 Calling FoFJK, ICntrl=  10002127 FMM=F ISym2X=0 I1Cent= 0 IOpClX= 0 NMat=1 NMatS=1 NMatT=0.
 FoFJK:  IHMeth= 1 ICntrl=10002127 DoSepK=F KAlg= 0 I1Cent=           0 FoldK=F
 IRaf=         0 NMat=       1 IRICut=       1 DoRegI=T DoRafI=F ISym2E= 0 IDoP0=0 IntGTp=1.
 FoFCou: FMM=F IPFlag=           0 FMFlag=      100000 FMFlg1=         800
         NFxFlg=           0 DoJE=F BraDBF=F KetDBF=F FulRan=T
         wScrn=  0.000000 ICntrl=  10002127 IOpCl=  0 I1Cent=           0 NGrid=           0
         NMat0=    1 NMatS0=      1 NMatT0=    0 NMatD0=    1 NMtDS0=    0 NMtDT0=    0
 Symmetry not used in FoFCou.
 Leave Link  703 at Fri Sep 17 13:38:58 2021, MaxMem=   524288000 cpu:              33.6 elap:              33.6
 (Enter /opt/gaussian/g16_legacy/l716.exe)
 Dipole        = 9.11120269D-02 6.69320505D-02-4.78830349D-03
 ***** Axes restored to original set *****
 -------------------------------------------------------------------
 Center     Atomic                   Forces (Hartrees/Bohr)
 Number     Number              X              Y              Z
 -------------------------------------------------------------------
      1        6           0.008760441    0.000734411   -0.003635094
      2        1          -0.001807252    0.003142299    0.002948962
      3        1          -0.000928664    0.003501794    0.001149541
      4        6           0.004824095   -0.004294489    0.000188511
      5        6           0.002560353    0.001718920    0.000907157
      6        1           0.001086145   -0.003192510   -0.000128313
      7        1          -0.003316832   -0.000383483   -0.002366897
      8        1          -0.002095866    0.002053671    0.001641546
      9        6          -0.002791562    0.000841940    0.002405014
     10        1          -0.002602451   -0.001922398    0.001513967
     11        6          -0.001435449    0.000719154   -0.002144335
     12        1           0.002686914   -0.000913760    0.001751599
     13        1           0.000816638   -0.002710386   -0.001976290
     14        1          -0.001717830    0.002786378   -0.001057096
     15        6           0.004004085    0.002118017    0.000612078
     16        1           0.000963058   -0.001292723   -0.002704276
     17        1          -0.002417712    0.001477477    0.002342161
     18        1          -0.002753243   -0.001445402    0.001500877
     19        6           0.000929198   -0.005075455    0.001417967
     20        6          -0.000057515   -0.002747409    0.001929763
     21        1           0.000995559   -0.001806283   -0.002656993
     22        1          -0.002498350    0.002238263    0.001026998
     23        1           0.002233800    0.003379668   -0.001516674
     24        6          -0.000062262    0.003471686    0.003951617
     25        1          -0.001224839    0.000898807   -0.003072984
     26        6          -0.007905692    0.001014908   -0.000422515
     27        1           0.002469666   -0.000777783   -0.002180538
     28        1           0.001285568   -0.003535311   -0.001425751
 -------------------------------------------------------------------
 Cartesian Forces:  Max     0.008760441 RMS     0.002574282
 Leave Link  716 at Fri Sep 17 13:38:58 2021, MaxMem=   524288000 cpu:               0.1 elap:               0.1
 (Enter /opt/gaussian/g16_legacy/l103.exe)

 GradGradGradGradGradGradGradGradGradGradGradGradGradGradGradGradGradGrad
 Berny optimization.
 FormGI is forming the generalized inverse of G from B-inverse, IUseBI=4.
 Internal  Forces:  Max     0.004873726 RMS     0.001916193
 Search for a local minimum.
 Step number   1 out of a maximum of  138
 All quantities printed in internal units (Hartrees-Bohrs-Radians)
 RMS Force = .19162D-02 SwitMx=.10000D-02 MixMth= 1
 Mixed Optimization -- RFO/linear search
 Second derivative matrix not updated -- first step.
 ITU=  0
     Eigenvalues ---    0.00344   0.00569   0.00671   0.00679   0.00692
     Eigenvalues ---    0.00715   0.00818   0.01219   0.01287   0.01569
     Eigenvalues ---    0.01641   0.02780   0.02785   0.04018   0.04138
     Eigenvalues ---    0.05349   0.05399   0.06978   0.07035   0.07091
     Eigenvalues ---    0.07092   0.07269   0.07302   0.07347   0.07505
     Eigenvalues ---    0.09277   0.09361   0.12767   0.12843   0.15999
     Eigenvalues ---    0.15999   0.16000   0.16000   0.16000   0.16000
     Eigenvalues ---    0.16000   0.16000   0.16000   0.16000   0.16000
     Eigenvalues ---    0.16000   0.16000   0.16000   0.21859   0.21866
     Eigenvalues ---    0.22000   0.22000   0.24994   0.24997   0.24998
     Eigenvalues ---    0.24999   0.29245   0.30866   0.31633   0.31700
     Eigenvalues ---    0.31798   0.31974   0.32792   0.33867   0.33977
     Eigenvalues ---    0.34067   0.34193   0.34223   0.34234   0.34247
     Eigenvalues ---    0.34249   0.34254   0.34256   0.34261   0.34264
     Eigenvalues ---    0.34298   0.34334   0.34550   0.34561   0.34797
     Eigenvalues ---    0.34846   0.55497   0.55581
 RFO step:  Lambda=-2.95959456D-03 EMin= 3.43507638D-03
 Linear search not attempted -- first point.
 Iteration  1 RMS(Cart)=  0.03969517 RMS(Int)=  0.00072383
 Iteration  2 RMS(Cart)=  0.00093539 RMS(Int)=  0.00016647
 Iteration  3 RMS(Cart)=  0.00000043 RMS(Int)=  0.00016647
 ITry= 1 IFail=0 DXMaxC= 1.84D-01 DCOld= 1.00D+10 DXMaxT= 3.00D-01 DXLimC= 3.00D+00 Rises=F
 Variable       Old X    -DE/DX   Delta X   Delta X   Delta X     New X
                                 (Linear)    (Quad)   (Total)
    R1        2.07218  -0.00329   0.00000  -0.00958  -0.00958   2.06259
    R2        2.07556  -0.00278   0.00000  -0.00813  -0.00813   2.06743
    R3        2.86270  -0.00355   0.00000  -0.01139  -0.01139   2.85131
    R4        2.89494   0.00176   0.00000   0.00594   0.00594   2.90088
    R5        2.84820  -0.00045   0.00000  -0.00142  -0.00142   2.84678
    R6        2.54693  -0.00396   0.00000  -0.00710  -0.00710   2.53982
    R7        2.06831  -0.00178   0.00000  -0.00515  -0.00515   2.06315
    R8        2.06956  -0.00370   0.00000  -0.01073  -0.01073   2.05883
    R9        2.06903  -0.00214   0.00000  -0.00619  -0.00619   2.06284
   R10        2.05925  -0.00223   0.00000  -0.00633  -0.00633   2.05292
   R11        2.82719   0.00308   0.00000   0.00931   0.00931   2.83650
   R12        2.06394  -0.00287   0.00000  -0.00823  -0.00823   2.05571
   R13        2.06892  -0.00259   0.00000  -0.00751  -0.00751   2.06141
   R14        2.06769  -0.00158   0.00000  -0.00456  -0.00456   2.06313
   R15        2.06887  -0.00187   0.00000  -0.00542  -0.00542   2.06345
   R16        2.07005  -0.00264   0.00000  -0.00767  -0.00767   2.06238
   R17        2.06411  -0.00282   0.00000  -0.00809  -0.00809   2.05603
   R18        2.84191  -0.00047   0.00000  -0.00146  -0.00146   2.84046
   R19        2.84696  -0.00080   0.00000  -0.00251  -0.00251   2.84445
   R20        2.54620  -0.00322   0.00000  -0.00577  -0.00577   2.54043
   R21        2.06916  -0.00200   0.00000  -0.00580  -0.00580   2.06336
   R22        2.06900  -0.00195   0.00000  -0.00564  -0.00564   2.06336
   R23        2.06937  -0.00393   0.00000  -0.01138  -0.01138   2.05799
   R24        2.06006  -0.00198   0.00000  -0.00564  -0.00564   2.05442
   R25        2.84516  -0.00153   0.00000  -0.00476  -0.00476   2.84040
   R26        2.07369  -0.00235   0.00000  -0.00687  -0.00687   2.06683
   R27        2.06913  -0.00276   0.00000  -0.00798  -0.00798   2.06114
    A1        1.82993   0.00207   0.00000   0.02246   0.02229   1.85222
    A2        1.93011   0.00043   0.00000   0.00928   0.00931   1.93943
    A3        1.91845  -0.00278   0.00000  -0.02029  -0.02033   1.89813
    A4        1.90265  -0.00070   0.00000  -0.00275  -0.00274   1.89991
    A5        1.91998  -0.00194   0.00000  -0.01715  -0.01718   1.90280
    A6        1.95837   0.00284   0.00000   0.00912   0.00916   1.96753
    A7        2.00828   0.00238   0.00000   0.00971   0.00914   2.01742
    A8        2.17064  -0.00487   0.00000  -0.01890  -0.01943   2.15121
    A9        2.10408   0.00251   0.00000   0.01030   0.00973   2.11381
   A10        1.92800   0.00228   0.00000   0.01220   0.01223   1.94023
   A11        1.95916  -0.00261   0.00000  -0.01299  -0.01296   1.94620
   A12        1.92491   0.00164   0.00000   0.00890   0.00891   1.93383
   A13        1.87700   0.00055   0.00000   0.00564   0.00567   1.88268
   A14        1.89495  -0.00307   0.00000  -0.02470  -0.02469   1.87026
   A15        1.87766   0.00109   0.00000   0.01012   0.01015   1.88781
   A16        2.06964  -0.00193   0.00000  -0.01334  -0.01336   2.05629
   A17        2.22512  -0.00188   0.00000  -0.00837  -0.00839   2.21673
   A18        1.98828   0.00381   0.00000   0.02188   0.02187   2.01015
   A19        1.98127  -0.00299   0.00000  -0.01845  -0.01837   1.96290
   A20        1.91000   0.00238   0.00000   0.01561   0.01555   1.92556
   A21        1.91719   0.00396   0.00000   0.02333   0.02330   1.94048
   A22        1.87270   0.00053   0.00000   0.00494   0.00501   1.87771
   A23        1.89299  -0.00096   0.00000  -0.00771  -0.00761   1.88538
   A24        1.88707  -0.00309   0.00000  -0.01878  -0.01896   1.86811
   A25        1.89072  -0.00241   0.00000  -0.02166  -0.02165   1.86907
   A26        1.88444   0.00023   0.00000   0.00325   0.00328   1.88772
   A27        1.92164   0.00230   0.00000   0.01166   0.01169   1.93332
   A28        1.86358   0.00201   0.00000   0.01708   0.01709   1.88067
   A29        1.92081   0.00000   0.00000  -0.00088  -0.00086   1.91995
   A30        1.97974  -0.00223   0.00000  -0.01023  -0.01021   1.96953
   A31        1.99472   0.00145   0.00000   0.00577   0.00575   2.00047
   A32        2.18266  -0.00329   0.00000  -0.01297  -0.01299   2.16967
   A33        2.10575   0.00184   0.00000   0.00731   0.00729   2.11304
   A34        1.92337   0.00175   0.00000   0.00883   0.00885   1.93221
   A35        1.92481   0.00221   0.00000   0.01245   0.01247   1.93728
   A36        1.96063  -0.00277   0.00000  -0.01389  -0.01386   1.94677
   A37        1.89487  -0.00314   0.00000  -0.02541  -0.02540   1.86947
   A38        1.87892   0.00091   0.00000   0.00785   0.00788   1.88680
   A39        1.87924   0.00092   0.00000   0.00934   0.00938   1.88862
   A40        2.06720  -0.00168   0.00000  -0.01186  -0.01226   2.05494
   A41        2.22717  -0.00226   0.00000  -0.00997  -0.01038   2.21680
   A42        1.98868   0.00395   0.00000   0.02262   0.02220   2.01088
   A43        1.94449   0.00331   0.00000   0.01365   0.01368   1.95817
   A44        1.92100  -0.00239   0.00000  -0.01485  -0.01505   1.90595
   A45        1.92606  -0.00264   0.00000  -0.02490  -0.02497   1.90108
   A46        1.88063   0.00060   0.00000   0.01702   0.01706   1.89769
   A47        1.94649  -0.00052   0.00000  -0.00235  -0.00230   1.94419
   A48        1.84184   0.00155   0.00000   0.01195   0.01169   1.85353
    D1       -2.64257  -0.00174   0.00000  -0.05224  -0.05203  -2.69460
    D2        0.47842  -0.00076   0.00000   0.01015   0.00992   0.48834
    D3       -0.63949   0.00058   0.00000  -0.02167  -0.02143  -0.66091
    D4        2.48151   0.00156   0.00000   0.04072   0.04052   2.52203
[...]
                 (A) (A) (A) (A) (A) (A) (A) (A) (A) (A) (A) (A)
                 (A) (A) (A) (A) (A) (A) (A) (A) (A) (A) (A) (A)
                 (A) (A) (A) (A) (A) (A) (A) (A) (A) (A) (A) (A)
                 (A) (A) (A) (A) (A) (A) (A) (A) (A) (A) (A) (A)
                 (A) (A) (A) (A) (A) (A) (A) (A) (A) (A) (A) (A)
                 (A) (A) (A) (A) (A) (A) (A) (A) (A) (A) (A) (A)
                 (A) (A) (A) (A) (A) (A) (A) (A) (A) (A) (A) (A)
                 (A) (A) (A) (A) (A) (A) (A) (A) (A) (A) (A) (A)
                 (A) (A) (A) (A) (A) (A) (A) (A) (A) (A) (A) (A)
                 (A) (A) (A) (A) (A) (A) (A) (A) (A) (A) (A) (A)
                 (A) (A) (A) (A) (A) (A) (A) (A) (A) (A) (A) (A)
                 (A) (A) (A) (A) (A) (A) (A) (A) (A)
 The electronic state is 1-A.
 Alpha  occ. eigenvalues --  -11.23020 -11.22460 -11.21868 -11.21730 -11.21712
 Alpha  occ. eigenvalues --  -11.21539 -11.21506 -11.21436 -11.21417 -11.21348
 Alpha  occ. eigenvalues --   -1.10821  -1.08492  -1.01823  -0.98143  -0.93838
 Alpha  occ. eigenvalues --   -0.91939  -0.86963  -0.82855  -0.70494  -0.69519
 Alpha  occ. eigenvalues --   -0.64988  -0.61512  -0.60591  -0.58878  -0.58366
 Alpha  occ. eigenvalues --   -0.56774  -0.55298  -0.54966  -0.53295  -0.52261
 Alpha  occ. eigenvalues --   -0.51859  -0.51173  -0.50832  -0.49581  -0.48519
 Alpha  occ. eigenvalues --   -0.46073  -0.44624  -0.33371  -0.31514
 Alpha virt. eigenvalues --    0.18142   0.19779   0.22152   0.24486   0.25192
 Alpha virt. eigenvalues --    0.27439   0.28535   0.28922   0.30318   0.30811
 Alpha virt. eigenvalues --    0.31477   0.32261   0.33202   0.33794   0.34383
 Alpha virt. eigenvalues --    0.35458   0.36114   0.36962   0.39185   0.40602
 Alpha virt. eigenvalues --    0.41328   0.42631   0.43685   0.44253   0.45395
 Alpha virt. eigenvalues --    0.51702   0.54378   0.61070   0.62576   0.70520
 Alpha virt. eigenvalues --    0.71073   0.72196   0.73768   0.76075   0.76177
 Alpha virt. eigenvalues --    0.76620   0.79010   0.79474   0.81070   0.82306
 Alpha virt. eigenvalues --    0.83713   0.85579   0.89117   0.91091   0.91343
 Alpha virt. eigenvalues --    0.92820   0.94745   0.97065   0.98284   0.98818
 Alpha virt. eigenvalues --    0.99710   1.00468   1.01911   1.03844   1.06577
 Alpha virt. eigenvalues --    1.08019   1.08221   1.09393   1.11664   1.12687
 Alpha virt. eigenvalues --    1.13026   1.13870   1.14856   1.15402   1.16045
 Alpha virt. eigenvalues --    1.16257   1.16619   1.18722   1.19116   1.20671
 Alpha virt. eigenvalues --    1.20953   1.23032   1.23885   1.25765   1.28153
 Alpha virt. eigenvalues --    1.34331   1.41723   1.42153   1.44890   1.46395
 Alpha virt. eigenvalues --    1.48456   1.54136   1.55360   1.57256   1.58165
 Alpha virt. eigenvalues --    1.61459   1.63397   1.66485   1.69046   1.69645
 Alpha virt. eigenvalues --    1.73917   1.82243   1.91111   1.93363   1.96231
 Alpha virt. eigenvalues --    1.98688   2.01467   2.02277   2.03942   2.08565
 Alpha virt. eigenvalues --    2.09706   2.10748   2.11744   2.13037   2.14903
 Alpha virt. eigenvalues --    2.15780   2.16940   2.19854   2.23666   2.28347
 Alpha virt. eigenvalues --    2.29590   2.30325   2.33235   2.35347   2.35688
 Alpha virt. eigenvalues --    2.35978   2.36098   2.38923   2.40264   2.41259
 Alpha virt. eigenvalues --    2.42195   2.43169   2.44154   2.45371   2.46084
 Alpha virt. eigenvalues --    2.47201   2.49167   2.49622   2.51174   2.54099
 Alpha virt. eigenvalues --    2.57315   2.58365   2.61888   2.63241   2.64107
 Alpha virt. eigenvalues --    2.67127   2.68175   2.71776   2.73352   2.73474
 Alpha virt. eigenvalues --    2.75815   2.77410   2.80796   2.82634   2.85354
 Alpha virt. eigenvalues --    2.87137   2.89441   2.92178   2.93739   2.94867
 Alpha virt. eigenvalues --    2.97869   2.99094   3.00960   3.02677   3.05807
 Alpha virt. eigenvalues --    3.06402   3.07703   3.09315   3.13762   3.17093
 Alpha virt. eigenvalues --    3.17589   3.19238   3.20046   3.21242   3.22334
 Alpha virt. eigenvalues --    3.24167   3.25050   3.26607   3.27420   3.37866
 Alpha virt. eigenvalues --    3.40355   3.46023   3.46902   3.56200   3.58183
 Alpha virt. eigenvalues --    3.59499   3.62406   3.67928   3.75494   3.78622
 Alpha virt. eigenvalues --    3.80005   3.81570   3.82569   3.83286   3.83898
 Alpha virt. eigenvalues --    3.84750   3.86481   3.87645   3.89820   3.91558
 Alpha virt. eigenvalues --    3.97645   4.59389   4.63170   4.74472   4.82572
 Alpha virt. eigenvalues --    4.88928   4.92582   4.93409   5.07840   5.10766
 Alpha virt. eigenvalues --    5.17766
          Condensed to atoms (all electrons):
               1          2          3          4          5          6
     1  C    5.004768   0.411714   0.414473   0.337355  -0.056085   0.000011
     2  H    0.411714   0.572983  -0.028296  -0.038988   0.003071  -0.000005
     3  H    0.414473  -0.028296   0.587507  -0.046308  -0.004587  -0.000489
     4  C    0.337355  -0.038988  -0.046308   4.952603   0.351934  -0.045679
     5  C   -0.056085   0.003071  -0.004587   0.351934   4.891804   0.400946
     6  H    0.000011  -0.000005  -0.000489  -0.045679   0.400946   0.596034
     7  H    0.003801  -0.000108   0.000106  -0.042765   0.407087  -0.027466
     8  H   -0.003698  -0.000034   0.002378  -0.041506   0.397495  -0.037541
     9  C   -0.047991  -0.001860   0.002531   0.697840  -0.046054  -0.001011
    10  H    0.003272   0.000031  -0.000118  -0.037842  -0.006525   0.000135
    11  C   -0.007749  -0.002811   0.000160  -0.050271   0.003364  -0.000101
    12  H   -0.001745  -0.001657   0.000030  -0.000691   0.000109  -0.000003
    13  H    0.000310  -0.000067  -0.000013  -0.000247  -0.000095   0.000017
    14  H    0.000152   0.000184   0.000017  -0.000627  -0.000106  -0.000004
    15  C    0.000587   0.000200  -0.000015  -0.000018  -0.000000  -0.000000
    16  H   -0.000040   0.000022   0.000000   0.000001  -0.000000  -0.000000
    17  H    0.000130  -0.000135  -0.000002  -0.000005   0.000000   0.000000
    18  H   -0.000302  -0.000131  -0.000016  -0.000011  -0.000000   0.000000
    19  C   -0.004325   0.001388   0.000787   0.000041  -0.000003   0.000000
    20  C   -0.000099  -0.000043  -0.000004   0.000001  -0.000000  -0.000000
    21  H   -0.000005   0.000002   0.000000   0.000000  -0.000000   0.000000
    22  H    0.000024  -0.000007  -0.000002  -0.000000   0.000000   0.000000
    23  H   -0.000003  -0.000002   0.000003   0.000000  -0.000000  -0.000000
    24  C   -0.061827  -0.000504  -0.000900   0.006443  -0.000149  -0.000111
    25  H    0.000175   0.000111   0.001011  -0.000152   0.000010   0.000015
    26  C    0.332330  -0.041801  -0.046074  -0.055544  -0.000661   0.000609
    27  H   -0.046841   0.004515  -0.001931  -0.002075  -0.000289   0.000197
    28  H   -0.042369  -0.003118   0.004477  -0.001813   0.000243  -0.000015
               7          8          9         10         11         12
     1  C    0.003801  -0.003698  -0.047991   0.003272  -0.007749  -0.001745
     2  H   -0.000108  -0.000034  -0.001860   0.000031  -0.002811  -0.001657
     3  H    0.000106   0.002378   0.002531  -0.000118   0.000160   0.000030
     4  C   -0.042765  -0.041506   0.697840  -0.037842  -0.050271  -0.000691
     5  C    0.407087   0.397495  -0.046054  -0.006525   0.003364   0.000109
     6  H   -0.027466  -0.037541  -0.001011   0.000135  -0.000101  -0.000003
     7  H    0.568858  -0.026764  -0.002890   0.002385   0.000132   0.000005
     8  H   -0.026764   0.591921  -0.000373   0.000216  -0.000105   0.000002
     9  C   -0.002890  -0.000373   4.938971   0.404494   0.340494  -0.043903
    10  H    0.002385   0.000216   0.404494   0.558671  -0.041278   0.003299
    11  C    0.000132  -0.000105   0.340494  -0.041278   4.900974   0.409079
    12  H    0.000005   0.000002  -0.043903   0.003299   0.409079   0.577164
    13  H   -0.000006  -0.000004  -0.041805  -0.001264   0.402169  -0.029956
    14  H   -0.000006   0.000017  -0.041523  -0.001122   0.401144  -0.027132
    15  C   -0.000000   0.000000   0.000015  -0.000000  -0.000147  -0.000000
    16  H    0.000000   0.000000   0.000000   0.000000   0.000003  -0.000008
    17  H   -0.000000  -0.000000   0.000000  -0.000000  -0.000009   0.000079
    18  H    0.000000  -0.000000  -0.000045   0.000000   0.000074   0.000412
    19  C    0.000000   0.000000  -0.000001   0.000000   0.000013  -0.000026
    20  C    0.000000  -0.000000  -0.000000   0.000000  -0.000000   0.000000
    21  H    0.000000   0.000000   0.000000   0.000000   0.000000  -0.000000
    22  H   -0.000000  -0.000000   0.000000  -0.000000  -0.000000  -0.000000
    23  H    0.000000  -0.000000  -0.000000   0.000000   0.000000  -0.000000
    24  C    0.000004   0.000004   0.000114   0.000002  -0.000031   0.000026
    25  H   -0.000000  -0.000001  -0.000002  -0.000000   0.000000  -0.000002
    26  C   -0.000109   0.000086  -0.004911  -0.000113   0.000577  -0.000737
    27  H   -0.000050   0.000058   0.000760   0.000001  -0.000033  -0.000010
    28  H   -0.000005   0.000006   0.001406  -0.000046  -0.000082  -0.000475
              13         14         15         16         17         18
     1  C    0.000310   0.000152   0.000587  -0.000040   0.000130  -0.000302
     2  H   -0.000067   0.000184   0.000200   0.000022  -0.000135  -0.000131
     3  H   -0.000013   0.000017  -0.000015   0.000000  -0.000002  -0.000016
     4  C   -0.000247  -0.000627  -0.000018   0.000001  -0.000005  -0.000011
     5  C   -0.000095  -0.000106  -0.000000  -0.000000   0.000000  -0.000000
     6  H    0.000017  -0.000004  -0.000000  -0.000000   0.000000   0.000000
     7  H   -0.000006  -0.000006  -0.000000   0.000000  -0.000000   0.000000
     8  H   -0.000004   0.000017   0.000000   0.000000  -0.000000  -0.000000
     9  C   -0.041805  -0.041523   0.000015   0.000000   0.000000  -0.000045
    10  H   -0.001264  -0.001122  -0.000000   0.000000  -0.000000   0.000000
    11  C    0.402169   0.401144  -0.000147   0.000003  -0.000009   0.000074
    12  H   -0.029956  -0.027132  -0.000000  -0.000008   0.000079   0.000412
    13  H    0.586720  -0.035462  -0.000015  -0.000000   0.000000   0.000114
    14  H   -0.035462   0.583648   0.000004   0.000000  -0.000000  -0.000013
    15  C   -0.000015   0.000004   4.907254   0.399852   0.401208   0.407154
    16  H   -0.000000   0.000000   0.399852   0.584669  -0.035759  -0.026060
    17  H    0.000000  -0.000000   0.401208  -0.035759   0.587442  -0.028659
    18  H    0.000114  -0.000013   0.407154  -0.026060  -0.028659   0.568221
    19  C    0.000001  -0.000000   0.350333  -0.043537  -0.043385  -0.037848
    20  C   -0.000000   0.000000  -0.064931  -0.002223  -0.002632   0.003725
    21  H   -0.000000   0.000000  -0.001201   0.002766  -0.000476  -0.000031
    22  H    0.000000  -0.000000  -0.001975  -0.000456   0.002756  -0.000068
    23  H   -0.000000  -0.000000   0.003785  -0.000053  -0.000032  -0.000113
    24  C   -0.000009   0.000002  -0.044248  -0.000365  -0.000031  -0.003253
    25  H    0.000000   0.000000   0.003528  -0.000121  -0.000121   0.000061
    26  C    0.000163  -0.000037  -0.008144   0.000117   0.000367  -0.002069
    27  H   -0.000000  -0.000000   0.000195   0.000021  -0.000014   0.000058
    28  H   -0.000140   0.000037  -0.002693   0.000113  -0.000076  -0.001675
              19         20         21         22         23         24
     1  C   -0.004325  -0.000099  -0.000005   0.000024  -0.000003  -0.061827
     2  H    0.001388  -0.000043   0.000002  -0.000007  -0.000002  -0.000504
     3  H    0.000787  -0.000004   0.000000  -0.000002   0.000003  -0.000900
     4  C    0.000041   0.000001   0.000000  -0.000000   0.000000   0.006443
     5  C   -0.000003  -0.000000  -0.000000   0.000000  -0.000000  -0.000149
     6  H    0.000000  -0.000000   0.000000   0.000000  -0.000000  -0.000111
     7  H    0.000000   0.000000   0.000000  -0.000000   0.000000   0.000004
     8  H    0.000000  -0.000000   0.000000  -0.000000  -0.000000   0.000004
     9  C   -0.000001  -0.000000   0.000000   0.000000  -0.000000   0.000114
    10  H    0.000000   0.000000   0.000000  -0.000000   0.000000   0.000002
    11  C    0.000013  -0.000000   0.000000  -0.000000   0.000000  -0.000031
    12  H   -0.000026   0.000000  -0.000000  -0.000000  -0.000000   0.000026
    13  H    0.000001  -0.000000  -0.000000   0.000000  -0.000000  -0.000009
    14  H   -0.000000   0.000000   0.000000  -0.000000  -0.000000   0.000002
    15  C    0.350333  -0.064931  -0.001201  -0.001975   0.003785  -0.044248
    16  H   -0.043537  -0.002223   0.002766  -0.000456  -0.000053  -0.000365
    17  H   -0.043385  -0.002632  -0.000476   0.002756  -0.000032  -0.000031
    18  H   -0.037848   0.003725  -0.000031  -0.000068  -0.000113  -0.003253
    19  C    4.914192   0.353753  -0.044274  -0.043899  -0.041639   0.697734
    20  C    0.353753   4.900112   0.398811   0.398238   0.406218  -0.044415
    21  H   -0.044274   0.398811   0.593607  -0.037806  -0.026549  -0.001270
    22  H   -0.043899   0.398238  -0.037806   0.594542  -0.026703  -0.000422
    23  H   -0.041639   0.406218  -0.026549  -0.026703   0.566018  -0.002632
    24  C    0.697734  -0.044415  -0.001270  -0.000422  -0.002632   4.962747
    25  H   -0.038449  -0.006963   0.000187   0.000182   0.002335   0.403391
    26  C   -0.050100   0.003126  -0.000131  -0.000068   0.000148   0.338699
    27  H    0.001583  -0.000094   0.000009  -0.000002  -0.000010  -0.041395
    28  H    0.000438   0.000051   0.000007  -0.000005   0.000007  -0.044060
              25         26         27         28
     1  C    0.000175   0.332330  -0.046841  -0.042369
     2  H    0.000111  -0.041801   0.004515  -0.003118
     3  H    0.001011  -0.046074  -0.001931   0.004477
     4  C   -0.000152  -0.055544  -0.002075  -0.001813
     5  C    0.000010  -0.000661  -0.000289   0.000243
     6  H    0.000015   0.000609   0.000197  -0.000015
     7  H   -0.000000  -0.000109  -0.000050  -0.000005
     8  H   -0.000001   0.000086   0.000058   0.000006
     9  C   -0.000002  -0.004911   0.000760   0.001406
    10  H   -0.000000  -0.000113   0.000001  -0.000046
    11  C    0.000000   0.000577  -0.000033  -0.000082
    12  H   -0.000002  -0.000737  -0.000010  -0.000475
    13  H    0.000000   0.000163  -0.000000  -0.000140
    14  H    0.000000  -0.000037  -0.000000   0.000037
    15  C    0.003528  -0.008144   0.000195  -0.002693
    16  H   -0.000121   0.000117   0.000021   0.000113
    17  H   -0.000121   0.000367  -0.000014  -0.000076
    18  H    0.000061  -0.002069   0.000058  -0.001675
    19  C   -0.038449  -0.050100   0.001583   0.000438
    20  C   -0.006963   0.003126  -0.000094   0.000051
    21  H    0.000187  -0.000131   0.000009   0.000007
    22  H    0.000182  -0.000068  -0.000002  -0.000005
    23  H    0.002335   0.000148  -0.000010   0.000007
    24  C    0.403391   0.338699  -0.041395  -0.044060
    25  H    0.557389  -0.039113  -0.003424   0.003152
    26  C   -0.039113   4.979543   0.413482   0.415850
    27  H   -0.003424   0.413482   0.585267  -0.028362
    28  H    0.003152   0.415850  -0.028362   0.575347
 Mulliken charges:
               1
     1  C   -0.236021
     2  H    0.125346
     3  H    0.115272
     4  C    0.018322
     5  C   -0.341505
     6  H    0.114461
     7  H    0.117792
     8  H    0.117845
     9  C   -0.154256
    10  H    0.115801
    11  C   -0.355567
    12  H    0.116140
    13  H    0.119588
    14  H    0.120830
    15  C   -0.350727
    16  H    0.121058
    17  H    0.119352
    18  H    0.120474
    19  C    0.027222
    20  C   -0.342631
    21  H    0.116356
    22  H    0.115672
    23  H    0.119222
    24  C   -0.163543
    25  H    0.116803
    26  C   -0.235486
    27  H    0.118380
    28  H    0.123802
 Sum of Mulliken charges =  -0.00000
 Mulliken charges with hydrogens summed into heavy atoms:
               1
     1  C    0.004596
     4  C    0.018322
     5  C    0.008593
     9  C   -0.038454
    11  C    0.000991
    15  C    0.010156
    19  C    0.027222
    20  C    0.008618
    24  C   -0.046740
    26  C    0.006696
 Electronic spatial extent (au):  <R**2>=           2384.0064
 Charge=             -0.0000 electrons
 Dipole moment (field-independent basis, Debye):
    X=              0.3027    Y=              0.1253    Z=              0.0460  Tot=              0.3308
 Quadrupole moment (field-independent basis, Debye-Ang):
   XX=            -64.3023   YY=            -63.2901   ZZ=            -67.3956
   XY=              0.7521   XZ=              1.2367   YZ=             -0.3487
 Traceless Quadrupole moment (field-independent basis, Debye-Ang):
   XX=              0.6937   YY=              1.7059   ZZ=             -2.3996
   XY=              0.7521   XZ=              1.2367   YZ=             -0.3487
 Octapole moment (field-independent basis, Debye-Ang**2):
  XXX=              2.6682  YYY=             -2.9989  ZZZ=              0.9000  XYY=             -0.6415
  XXY=              4.0909  XXZ=             -2.0918  XZZ=              1.2120  YZZ=              1.4955
  YYZ=              0.6111  XYZ=             -0.3641
 Hexadecapole moment (field-independent basis, Debye-Ang**3):
 XXXX=          -2435.7171 YYYY=           -693.4923 ZZZZ=           -166.6415 XXXY=              2.3047
 XXXZ=             14.7515 YYYX=            -11.0526 YYYZ=             -1.4214 ZZZX=              2.8119
 ZZZY=             -0.6411 XXYY=           -520.1247 XXZZ=           -449.2341 YYZZ=           -138.3649
 XXYZ=             -4.2785 YYXZ=              0.5785 ZZXY=              5.9188
 N-N= 5.190879820845D+02 E-N=-1.942888703464D+03  KE= 3.887471639088D+02
 No NMR shielding tensors so no spin-rotation constants.
 Leave Link  601 at Fri Sep 17 14:49:42 2021, MaxMem=   524288000 cpu:               0.4 elap:               2.0
 (Enter /opt/gaussian/g16_legacy/l9999.exe)
 1\1\GINC-TRUENO91\FOpt\RMP2-FC\6-31G(d,p)\C10H18\JRAMOS\17-Sep-2021\0\
 \#p opt mp2/6-31g(d,p)\\Conformer number 2323. Energy MM = 23.242 kcal
 /mol\\0,1\C,0.768923262,-0.7647717488,0.370757866\H,0.7616682681,-0.85
 39686554,-0.7166734256\H,0.6079616871,-1.7738548568,0.7610529326\C,2.0
 895316882,-0.2386756241,0.8740532398\C,2.4997304473,-0.7168790314,2.24
 0255886\H,1.7237681376,-0.5039450421,2.9789159843\H,3.4213866187,-0.23
 99955569,2.5713920689\H,2.6527193398,-1.7982715968,2.2433399995\C,2.84
 54652186,0.642256992,0.1925300719\H,3.768071916,0.9798600517,0.6566035
 835\C,2.554916462,1.223485186,-1.1579133741\H,1.6163231699,0.861440885
 1,-1.5713762676\H,2.4959221962,2.3122059033,-1.1039429199\H,3.35020515
 34,0.9834762497,-1.8662022693\C,-2.024645574,0.8541730357,-1.747850966
 1\H,-2.7756274525,1.6431789579,-1.8295387404\H,-1.9500492599,0.3866543
 957,-2.7320751087\H,-1.0673393217,1.31799427,-1.5238460959\C,-2.438238
 5694,-0.1637352074,-0.7213678311\C,-3.7376037248,-0.8613248998,-1.0154
 223697\H,-4.5563095137,-0.1420542293,-1.0906883615\H,-3.689559765,-1.3
 872759063,-1.9715998864\H,-3.9882056241,-1.583803735,-0.2401924216\C,-
 1.7327123963,-0.4543979349,0.3879174254\H,-2.1264763184,-1.2273485656,
 1.0431503149\C,-0.412212721,0.1288067371,0.7953955394\H,-0.3912171851,
 0.2536466593,1.8813125997\H,-0.2662961389,1.123123267,0.3715125256\\Ve
 rsion=EM64L-G16RevA.03\State=1-A\HF=-389.1567534\MP2=-390.5738646\RMSD
 =5.133e-09\RMSF=3.183e-06\Dipole=-0.0725327,0.0211453,-0.0883592\PG=C0
 1 [X(C10H18)]\\@


 THE MOST SERIOUS THREAT TO THE SURVIVAL OF MANKIND IS NOT NOW
 IGNORANCE IN THE TRADITIONAL SENSE,
 BUT A MORALLY NEUTRAL, AN INSENSITIVE OR INHIBITED HUMAN INTELLIGENCE.

                     -- MARGO JEFFERSON IN NEWSWEEK, SEPTEMBER 2, 1974
 Job cpu time:       0 days  1 hours 16 minutes 59.8 seconds.
 Elapsed time:       0 days  1 hours 17 minutes  1.2 seconds.
 File lengths (MBytes):  RWF=     32 Int=      0 D2E=      0 Chk=      7 Scr=      1
 Normal termination of Gaussian 16 at Fri Sep 17 14:49:43 2021.
