 Entering Gaussian System, Link 0=/opt/gaussian/g16_legacy/g16
 Input=01-IsoP_1639_gaussian.com
 Output=01-IsoP_1639_gaussian.log
 Initial command:
 /opt/gaussian/g16_legacy/l1.exe "/scratch-local/jramos/2661335/Gau-25041.inp" -scrdir="/scratch-local/jramos/2661335/"
 Entering Link 1 = /opt/gaussian/g16_legacy/l1.exe PID=     25061.
  
 Copyright (c) 1988,1990,1992,1993,1995,1998,2003,2009,2016,
            Gaussian, Inc.  All Rights Reserved.
  
 This is part of the Gaussian(R) 16 program.  It is based on
 the Gaussian(R) 09 system (copyright 2009, Gaussian, Inc.),
 the Gaussian(R) 03 system (copyright 2003, Gaussian, Inc.),
 the Gaussian(R) 98 system (copyright 1998, Gaussian, Inc.),
 the Gaussian(R) 94 system (copyright 1995, Gaussian, Inc.),
 the Gaussian 92(TM) system (copyright 1992, Gaussian, Inc.),
 the Gaussian 90(TM) system (copyright 1990, Gaussian, Inc.),
 the Gaussian 88(TM) system (copyright 1988, Gaussian, Inc.),
 the Gaussian 86(TM) system (copyright 1986, Carnegie Mellon
 University), and the Gaussian 82(TM) system (copyright 1983,
 Carnegie Mellon University). Gaussian is a federally registered
 trademark of Gaussian, Inc.
  
 This software contains proprietary and confidential information,
 including trade secrets, belonging to Gaussian, Inc.
  
 This software is provided under written license and may be
 used, copied, transmitted, or stored only in accord with that
 written license.
  
 The following legend is applicable only to US Government
 contracts under FAR:
  
                    RESTRICTED RIGHTS LEGEND
  
 Use, reproduction and disclosure by the US Government is
 subject to restrictions as set forth in subparagraphs (a)
 and (c) of the Commercial Computer Software - Restricted
 Rights clause in FAR 52.227-19.
  
 Gaussian, Inc.
 340 Quinnipiac St., Bldg. 40, Wallingford CT 06492
  
  
 ---------------------------------------------------------------
 Warning -- This program may not be used in any manner that
 competes with the business of Gaussian, Inc. or will provide
 assistance to any competitor of Gaussian, Inc.  The licensee
 of this program is prohibited from giving any competitor of
 Gaussian, Inc. access to this program.  By using this program,
 the user acknowledges that Gaussian, Inc. is engaged in the
 business of creating and licensing software in the field of
 computational chemistry and represents and warrants to the
 licensee that it is not a competitor of Gaussian, Inc. and that
 it will not use this program in any manner prohibited above.
 ---------------------------------------------------------------
  

 Cite this work as:
 Gaussian 16, Revision A.03,
 M. J. Frisch, G. W. Trucks, H. B. Schlegel, G. E. Scuseria, 
 M. A. Robb, J. R. Cheeseman, G. Scalmani, V. Barone, 
 G. A. Petersson, H. Nakatsuji, X. Li, M. Caricato, A. V. Marenich, 
 J. Bloino, B. G. Janesko, R. Gomperts, B. Mennucci, H. P. Hratchian, 
 J. V. Ortiz, A. F. Izmaylov, J. L. Sonnenberg, D. Williams-Young, 
 F. Ding, F. Lipparini, F. Egidi, J. Goings, B. Peng, A. Petrone, 
 T. Henderson, D. Ranasinghe, V. G. Zakrzewski, J. Gao, N. Rega, 
 G. Zheng, W. Liang, M. Hada, M. Ehara, K. Toyota, R. Fukuda, 
 J. Hasegawa, M. Ishida, T. Nakajima, Y. Honda, O. Kitao, H. Nakai, 
 T. Vreven, K. Throssell, J. A. Montgomery, Jr., J. E. Peralta, 
 F. Ogliaro, M. J. Bearpark, J. J. Heyd, E. N. Brothers, K. N. Kudin, 
 V. N. Staroverov, T. A. Keith, R. Kobayashi, J. Normand, 
 K. Raghavachari, A. P. Rendell, J. C. Burant, S. S. Iyengar, 
 J. Tomasi, M. Cossi, J. M. Millam, M. Klene, C. Adamo, R. Cammi, 
 J. W. Ochterski, R. L. Martin, K. Morokuma, O. Farkas, 
 J. B. Foresman, and D. J. Fox, Gaussian, Inc., Wallingford CT, 2016.
 
 ******************************************
 Gaussian 16:  EM64L-G16RevA.03 25-Dec-2016
                17-Sep-2021 
 ******************************************
 %chk=01-IsoP_1639_gaussian.chk
 %nproc=1
 Will use up to    1 processors via shared memory.
 %mem=4000Mb
 ---------------------
 #p opt mp2/6-31g(d,p)
 ---------------------
 1/18=20,19=15,38=1/1,3;
 2/9=110,12=2,17=6,18=5,40=1/2;
 3/5=1,6=6,7=101,11=9,25=1,30=1,71=1/1,2,3;
 4//1;
 5/5=2,38=5/2;
 8/6=4,10=2/1;
 9/15=2,16=-3/6;
 10/5=1/2;
 6/7=2,8=2,9=2,10=2/1;
 7/12=2/1,2,3,16;
 1/18=20,19=15/3(2);
 2/9=110/2;
 99//99;
 2/9=110/2;
 3/5=1,6=6,7=101,11=9,25=1,30=1,71=1/1,2,3;
 4/5=5,16=3,69=1/1;
 5/5=2,38=5/2;
 8/6=4,10=2/1;
 9/15=2,16=-3/6;
 10/5=1/2;
 7/12=2/1,2,3,16;
 1/18=20,19=15/3(-8);
 2/9=110/2;
 6/7=2,8=2,9=2,10=2/1;
 99//99;
 Leave Link    1 at Fri Sep 17 13:32:35 2021, MaxMem=   524288000 cpu:               0.0 elap:               0.1
 (Enter /opt/gaussian/g16_legacy/l101.exe)
 --------------------------------------------------
 Conformer number 1639. Energy MM = 23.242 kcal/mol
 --------------------------------------------------
 Symbolic Z-matrix:
 Charge =  0 Multiplicity = 1
 C                    -0.2813   -1.138    -0.0528 
 H                     0.095    -1.1301    0.9772 
 H                     0.268    -1.9508   -0.5468 
 C                    -1.7619   -1.4573   -0.0765 
 C                    -2.2473   -2.1431   -1.3278 
 H                    -2.0676   -1.5125   -2.2042 
 H                    -3.32     -2.3608   -1.2921 
 H                    -1.7216   -3.0932   -1.4682 
 C                    -2.6145   -1.1888    0.9322 
 H                    -3.6588   -1.4805    0.8239 
 C                    -2.3088   -0.4968    2.223 
 H                    -2.4202   -1.1977    3.0558 
 H                    -3.0167    0.3249    2.3723 
 H                    -1.3039   -0.0708    2.2617 
 C                     3.6508    1.5531   -0.0407 
 H                     3.8741    2.602    -0.2623 
 H                     4.1561    1.2785    0.8911 
 H                     4.081     0.9453   -0.8437 
 C                     2.1635    1.3548    0.0934 
 C                     1.5253    2.1766    1.1793 
 H                     1.5816    3.2407    0.9281 
 H                     2.05      2.0183    2.1277 
 H                     0.4764    1.9266    1.3535 
 C                     1.5104    0.4918   -0.7093 
 H                     2.0848   -0.0641   -1.4504 
 C                     0.0341    0.1975   -0.7338 
 H                    -0.284     0.169    -1.7837 
 H                    -0.5444    1.0054   -0.274 
 
 ITRead=  0  0  0  0  0  0  0  0  0  0  0  0  0  0  0  0  0  0  0  0
 ITRead=  0  0  0  0  0  0  0  0
 MicOpt= -1 -1 -1 -1 -1 -1 -1 -1 -1 -1 -1 -1 -1 -1 -1 -1 -1 -1 -1 -1
 MicOpt= -1 -1 -1 -1 -1 -1 -1 -1
 NAtoms=     28 NQM=       28 NQMF=       0 NMMI=      0 NMMIF=      0
                NMic=       0 NMicF=      0.
                    Isotopes and Nuclear Properties:
 (Nuclear quadrupole moments (NQMom) in fm**2, nuclear magnetic moments (NMagM)
  in nuclear magnetons)

  Atom         1           2           3           4           5           6           7           8           9          10
 IAtWgt=          12           1           1          12          12           1           1           1          12           1
 AtmWgt=  12.0000000   1.0078250   1.0078250  12.0000000  12.0000000   1.0078250   1.0078250   1.0078250  12.0000000   1.0078250
 NucSpn=           0           1           1           0           0           1           1           1           0           1
 AtZEff=  -0.0000000  -0.0000000  -0.0000000  -0.0000000  -0.0000000  -0.0000000  -0.0000000  -0.0000000  -0.0000000  -0.0000000
 NQMom=    0.0000000   0.0000000   0.0000000   0.0000000   0.0000000   0.0000000   0.0000000   0.0000000   0.0000000   0.0000000
 NMagM=    0.0000000   2.7928460   2.7928460   0.0000000   0.0000000   2.7928460   2.7928460   2.7928460   0.0000000   2.7928460
 AtZNuc=   6.0000000   1.0000000   1.0000000   6.0000000   6.0000000   1.0000000   1.0000000   1.0000000   6.0000000   1.0000000

  Atom        11          12          13          14          15          16          17          18          19          20
 IAtWgt=          12           1           1           1          12           1           1           1          12          12
 AtmWgt=  12.0000000   1.0078250   1.0078250   1.0078250  12.0000000   1.0078250   1.0078250   1.0078250  12.0000000  12.0000000
 NucSpn=           0           1           1           1           0           1           1           1           0           0
 AtZEff=  -0.0000000  -0.0000000  -0.0000000  -0.0000000  -0.0000000  -0.0000000  -0.0000000  -0.0000000  -0.0000000  -0.0000000
 NQMom=    0.0000000   0.0000000   0.0000000   0.0000000   0.0000000   0.0000000   0.0000000   0.0000000   0.0000000   0.0000000
 NMagM=    0.0000000   2.7928460   2.7928460   2.7928460   0.0000000   2.7928460   2.7928460   2.7928460   0.0000000   0.0000000
 AtZNuc=   6.0000000   1.0000000   1.0000000   1.0000000   6.0000000   1.0000000   1.0000000   1.0000000   6.0000000   6.0000000

  Atom        21          22          23          24          25          26          27          28
 IAtWgt=           1           1           1          12           1          12           1           1
 AtmWgt=   1.0078250   1.0078250   1.0078250  12.0000000   1.0078250  12.0000000   1.0078250   1.0078250
 NucSpn=           1           1           1           0           1           0           1           1
 AtZEff=  -0.0000000  -0.0000000  -0.0000000  -0.0000000  -0.0000000  -0.0000000  -0.0000000  -0.0000000
 NQMom=    0.0000000   0.0000000   0.0000000   0.0000000   0.0000000   0.0000000   0.0000000   0.0000000
 NMagM=    2.7928460   2.7928460   2.7928460   0.0000000   2.7928460   0.0000000   2.7928460   2.7928460
 AtZNuc=   1.0000000   1.0000000   1.0000000   6.0000000   1.0000000   6.0000000   1.0000000   1.0000000
 Leave Link  101 at Fri Sep 17 13:32:35 2021, MaxMem=   524288000 cpu:               0.3 elap:               0.3
 (Enter /opt/gaussian/g16_legacy/l103.exe)

 GradGradGradGradGradGradGradGradGradGradGradGradGradGradGradGradGradGrad
 Berny optimization.
 Initialization pass.
                           ----------------------------
                           !    Initial Parameters    !
                           ! (Angstroms and Degrees)  !
 --------------------------                            --------------------------
 ! Name  Definition              Value          Derivative Info.                !
 --------------------------------------------------------------------------------
 ! R1    R(1,2)                  1.0966         estimate D2E/DX2                !
 ! R2    R(1,3)                  1.0984         estimate D2E/DX2                !
 ! R3    R(1,4)                  1.5148         estimate D2E/DX2                !
 ! R4    R(1,26)                 1.5319         estimate D2E/DX2                !
 ! R5    R(4,5)                  1.5072         estimate D2E/DX2                !
 ! R6    R(4,9)                  1.3478         estimate D2E/DX2                !
 ! R7    R(5,6)                  1.0945         estimate D2E/DX2                !
 ! R8    R(5,7)                  1.0951         estimate D2E/DX2                !
 ! R9    R(5,8)                  1.0949         estimate D2E/DX2                !
 ! R10   R(9,10)                 1.0897         estimate D2E/DX2                !
 ! R11   R(9,11)                 1.4962         estimate D2E/DX2                !
 ! R12   R(11,12)                1.0942         estimate D2E/DX2                !
 ! R13   R(11,13)                1.0948         estimate D2E/DX2                !
 ! R14   R(11,14)                1.0922         estimate D2E/DX2                !
 ! R15   R(15,16)                1.0951         estimate D2E/DX2                !
 ! R16   R(15,17)                1.095          estimate D2E/DX2                !
 ! R17   R(15,18)                1.0951         estimate D2E/DX2                !
 ! R18   R(15,19)                1.5064         estimate D2E/DX2                !
 ! R19   R(19,20)                1.5039         estimate D2E/DX2                !
 ! R20   R(19,24)                1.3475         estimate D2E/DX2                !
 ! R21   R(20,21)                1.0948         estimate D2E/DX2                !
 ! R22   R(20,22)                1.0954         estimate D2E/DX2                !
 ! R23   R(20,23)                1.0923         estimate D2E/DX2                !
 ! R24   R(24,25)                1.09           estimate D2E/DX2                !
 ! R25   R(24,26)                1.5055         estimate D2E/DX2                !
 ! R26   R(26,27)                1.0974         estimate D2E/DX2                !
 ! R27   R(26,28)                1.0949         estimate D2E/DX2                !
 ! A1    A(2,1,3)              104.8423         estimate D2E/DX2                !
 ! A2    A(2,1,4)              110.5857         estimate D2E/DX2                !
 ! A3    A(2,1,26)             109.9138         estimate D2E/DX2                !
 ! A4    A(3,1,4)              109.0134         estimate D2E/DX2                !
 ! A5    A(3,1,26)             110.0124         estimate D2E/DX2                !
 ! A6    A(4,1,26)             112.212          estimate D2E/DX2                !
 ! A7    A(1,4,5)              115.0668         estimate D2E/DX2                !
 ! A8    A(1,4,9)              124.3749         estimate D2E/DX2                !
 ! A9    A(5,4,9)              120.5481         estimate D2E/DX2                !
 ! A10   A(4,5,6)              110.4706         estimate D2E/DX2                !
 ! A11   A(4,5,7)              112.2616         estimate D2E/DX2                !
 ! A12   A(4,5,8)              110.284          estimate D2E/DX2                !
 ! A13   A(6,5,7)              107.5441         estimate D2E/DX2                !
 ! A14   A(6,5,8)              108.5687         estimate D2E/DX2                !
 ! A15   A(7,5,8)              107.5767         estimate D2E/DX2                !
 ! A16   A(4,9,10)             118.5905         estimate D2E/DX2                !
 ! A17   A(4,9,11)             127.487          estimate D2E/DX2                !
 ! A18   A(10,9,11)            113.9148         estimate D2E/DX2                !
 ! A19   A(9,11,12)            109.8508         estimate D2E/DX2                !
 ! A20   A(9,11,13)            109.4314         estimate D2E/DX2                !
 ! A21   A(9,11,14)            113.5144         estimate D2E/DX2                !
 ! A22   A(12,11,13)           108.1286         estimate D2E/DX2                !
 ! A23   A(12,11,14)           108.4554         estimate D2E/DX2                !
 ! A24   A(13,11,14)           107.2988         estimate D2E/DX2                !
 ! A25   A(16,15,17)           108.561          estimate D2E/DX2                !
 ! A26   A(16,15,18)           107.6452         estimate D2E/DX2                !
 ! A27   A(16,15,19)           110.2077         estimate D2E/DX2                !
 ! A28   A(17,15,18)           107.6686         estimate D2E/DX2                !
 ! A29   A(17,15,19)           110.2943         estimate D2E/DX2                !
 ! A30   A(18,15,19)           112.337          estimate D2E/DX2                !
 ! A31   A(15,19,20)           114.2868         estimate D2E/DX2                !
 ! A32   A(15,19,24)           120.6512         estimate D2E/DX2                !
 ! A33   A(20,19,24)           125.059          estimate D2E/DX2                !
 ! A34   A(19,20,21)           110.0974         estimate D2E/DX2                !
 ! A35   A(19,20,22)           110.0548         estimate D2E/DX2                !
 ! A36   A(19,20,23)           113.4277         estimate D2E/DX2                !
 ! A37   A(21,20,22)           108.3303         estimate D2E/DX2                !
 ! A38   A(21,20,23)           107.9654         estimate D2E/DX2                !
 ! A39   A(22,20,23)           106.7883         estimate D2E/DX2                !
 ! A40   A(19,24,25)           118.4397         estimate D2E/DX2                !
 ! A41   A(19,24,26)           127.6015         estimate D2E/DX2                !
 ! A42   A(25,24,26)           113.9514         estimate D2E/DX2                !
 ! A43   A(1,26,24)            111.4115         estimate D2E/DX2                !
 ! A44   A(1,26,27)            110.0583         estimate D2E/DX2                !
 ! A45   A(1,26,28)            110.3531         estimate D2E/DX2                !
 ! A46   A(24,26,27)           107.751          estimate D2E/DX2                !
 ! A47   A(24,26,28)           111.5324         estimate D2E/DX2                !
 ! A48   A(27,26,28)           105.5323         estimate D2E/DX2                !
 ! D1    D(2,1,4,5)           -151.4127         estimate D2E/DX2                !
 ! D2    D(2,1,4,9)             27.4229         estimate D2E/DX2                !
 ! D3    D(3,1,4,5)            -36.651          estimate D2E/DX2                !
 ! D4    D(3,1,4,9)            142.1846         estimate D2E/DX2                !
 ! D5    D(26,1,4,5)            85.469          estimate D2E/DX2                !
 ! D6    D(26,1,4,9)           -95.6953         estimate D2E/DX2                !
 ! D7    D(2,1,26,24)           56.9387         estimate D2E/DX2                !
 ! D8    D(2,1,26,27)          176.3979         estimate D2E/DX2                !
 ! D9    D(2,1,26,28)          -67.5298         estimate D2E/DX2                !
 ! D10   D(3,1,26,24)          -58.0159         estimate D2E/DX2                !
 ! D11   D(3,1,26,27)           61.4433         estimate D2E/DX2                !
 ! D12   D(3,1,26,28)          177.5156         estimate D2E/DX2                !
 ! D13   D(4,1,26,24)         -179.5658         estimate D2E/DX2                !
 ! D14   D(4,1,26,27)          -60.1065         estimate D2E/DX2                !
 ! D15   D(4,1,26,28)           55.9657         estimate D2E/DX2                !
 ! D16   D(1,4,5,6)            -60.5254         estimate D2E/DX2                !
 ! D17   D(1,4,5,7)            179.4427         estimate D2E/DX2                !
 ! D18   D(1,4,5,8)             59.4977         estimate D2E/DX2                !
 ! D19   D(9,4,5,6)            120.5905         estimate D2E/DX2                !
 ! D20   D(9,4,5,7)              0.5586         estimate D2E/DX2                !
 ! D21   D(9,4,5,8)           -119.3865         estimate D2E/DX2                !
 ! D22   D(1,4,9,10)          -178.6031         estimate D2E/DX2                !
 ! D23   D(1,4,9,11)             2.4756         estimate D2E/DX2                !
 ! D24   D(5,4,9,10)             0.1723         estimate D2E/DX2                !
 ! D25   D(5,4,9,11)          -178.749          estimate D2E/DX2                !
 ! D26   D(4,9,11,12)         -113.6816         estimate D2E/DX2                !
 ! D27   D(4,9,11,13)          127.7539         estimate D2E/DX2                !
 ! D28   D(4,9,11,14)            7.928          estimate D2E/DX2                !
 ! D29   D(10,9,11,12)          67.3545         estimate D2E/DX2                !
 ! D30   D(10,9,11,13)         -51.21           estimate D2E/DX2                !
 ! D31   D(10,9,11,14)        -171.0359         estimate D2E/DX2                !
 ! D32   D(16,15,19,20)        -59.6024         estimate D2E/DX2                !
 ! D33   D(16,15,19,24)        120.9872         estimate D2E/DX2                !
 ! D34   D(17,15,19,20)         60.2493         estimate D2E/DX2                !
 ! D35   D(17,15,19,24)       -119.1611         estimate D2E/DX2                !
 ! D36   D(18,15,19,20)       -179.6319         estimate D2E/DX2                !
 ! D37   D(18,15,19,24)          0.9577         estimate D2E/DX2                !
 ! D38   D(15,19,20,21)         66.5625         estimate D2E/DX2                !
 ! D39   D(15,19,20,22)        -52.7831         estimate D2E/DX2                !
 ! D40   D(15,19,20,23)       -172.3399         estimate D2E/DX2                !
 ! D41   D(24,19,20,21)       -114.0572         estimate D2E/DX2                !
 ! D42   D(24,19,20,22)        126.5973         estimate D2E/DX2                !
 ! D43   D(24,19,20,23)          7.0404         estimate D2E/DX2                !
 ! D44   D(15,19,24,25)          0.5136         estimate D2E/DX2                !
 ! D45   D(15,19,24,26)       -178.4323         estimate D2E/DX2                !
 ! D46   D(20,19,24,25)       -178.8299         estimate D2E/DX2                !
 ! D47   D(20,19,24,26)          2.2243         estimate D2E/DX2                !
 ! D48   D(19,24,26,1)        -103.3706         estimate D2E/DX2                !
 ! D49   D(19,24,26,27)        135.8091         estimate D2E/DX2                !
 ! D50   D(19,24,26,28)         20.4322         estimate D2E/DX2                !
 ! D51   D(25,24,26,1)          77.6437         estimate D2E/DX2                !
 ! D52   D(25,24,26,27)        -43.1767         estimate D2E/DX2                !
 ! D53   D(25,24,26,28)       -158.5536         estimate D2E/DX2                !
 --------------------------------------------------------------------------------
 Trust Radius=3.00D-01 FncErr=1.00D-07 GrdErr=1.00D-07 EigMax=2.50D+02 EigMin=1.00D-04
 Number of steps in this run=    138 maximum allowed number of steps=    168.
 GradGradGradGradGradGradGradGradGradGradGradGradGradGradGradGradGradGrad

 Leave Link  103 at Fri Sep 17 13:32:35 2021, MaxMem=   524288000 cpu:               0.0 elap:               0.0
 (Enter /opt/gaussian/g16_legacy/l202.exe)
                          Input orientation:                          
 ---------------------------------------------------------------------
 Center     Atomic      Atomic             Coordinates (Angstroms)
 Number     Number       Type             X           Y           Z
 ---------------------------------------------------------------------
      1          6           0       -0.281300   -1.138000   -0.052800
      2          1           0        0.095000   -1.130100    0.977200
      3          1           0        0.268000   -1.950800   -0.546800
      4          6           0       -1.761900   -1.457300   -0.076500
      5          6           0       -2.247300   -2.143100   -1.327800
      6          1           0       -2.067600   -1.512500   -2.204200
      7          1           0       -3.320000   -2.360800   -1.292100
      8          1           0       -1.721600   -3.093200   -1.468200
      9          6           0       -2.614500   -1.188800    0.932200
     10          1           0       -3.658800   -1.480500    0.823900
     11          6           0       -2.308800   -0.496800    2.223000
     12          1           0       -2.420200   -1.197700    3.055800
     13          1           0       -3.016700    0.324900    2.372300
     14          1           0       -1.303900   -0.070800    2.261700
     15          6           0        3.650800    1.553100   -0.040700
     16          1           0        3.874100    2.602000   -0.262300
     17          1           0        4.156100    1.278500    0.891100
     18          1           0        4.081000    0.945300   -0.843700
     19          6           0        2.163500    1.354800    0.093400
     20          6           0        1.525300    2.176600    1.179300
     21          1           0        1.581600    3.240700    0.928100
     22          1           0        2.050000    2.018300    2.127700
     23          1           0        0.476400    1.926600    1.353500
     24          6           0        1.510400    0.491800   -0.709300
     25          1           0        2.084800   -0.064100   -1.450400
     26          6           0        0.034100    0.197500   -0.733800
     27          1           0       -0.284000    0.169000   -1.783700
     28          1           0       -0.544400    1.005400   -0.274000
 ---------------------------------------------------------------------
                    Distance matrix (angstroms):
                    1          2          3          4          5
     1  C    0.000000
     2  H    1.096615   0.000000
     3  H    1.098367   1.739556   0.000000
     4  C    1.514824   2.159959   2.141312   0.000000
     5  C    2.549707   3.438832   2.640772   1.507211   0.000000
     6  H    2.821283   3.865795   2.897259   2.150257   1.094543
     7  H    3.502114   4.280954   3.687454   2.172941   1.095150
     8  H    2.810806   3.624056   2.472360   2.148167   1.094880
     9  C    2.533106   2.710509   3.328196   1.347774   2.480549
    10  H    3.506197   3.773234   4.185661   2.099878   2.657289
    11  C    3.114668   2.780529   4.052876   2.551345   3.914367
    12  H    3.773838   3.263645   4.557664   3.211239   4.487719
    13  H    3.937461   3.707561   4.948657   3.278320   4.513728
    14  H    2.746186   2.174621   3.727324   2.756687   4.250758
    15  C    4.764827   4.569398   4.896610   6.193635   7.078567
    16  H    5.594537   5.454038   5.814885   6.948160   7.818107
    17  H    5.140130   4.722425   5.254832   6.591174   7.591732
    18  H    4.898502   4.848831   4.797344   6.364005   7.058325
    19  C    3.494635   3.351794   3.863906   4.831722   5.806055
    20  C    3.970950   3.608444   4.647113   5.058453   6.259223
    21  H    4.858557   4.616956   5.554507   5.853154   6.981036
    22  H    4.489072   3.880476   5.107076   5.609713   6.908293
    23  H    3.455946   3.103302   4.323055   4.301821   5.583043
    24  C    2.509468   2.734630   2.745225   3.861007   4.630934
    25  H    2.950420   3.314951   2.770721   4.315751   4.806700
    26  C    1.531926   2.166507   2.169071   2.529036   3.322052
    27  H    2.168933   3.074715   2.515587   2.782727   3.067279
    28  H    2.170787   2.556305   3.077910   2.754306   3.731409
                    6          7          8          9         10
     6  H    0.000000
     7  H    1.766365   0.000000
     8  H    1.777646   1.767004   0.000000
     9  C    3.200138   2.611288   3.191540   0.000000
    10  H    3.420867   2.316715   3.406944   1.089670   0.000000
    11  C    4.548618   4.105234   4.550940   1.496155   2.178909
    12  H    5.281195   4.589845   4.954547   2.132489   2.568167
    13  H    5.022069   4.553329   5.301899   2.127661   2.463596
    14  H    4.754577   4.683829   4.818872   2.176044   3.098399
    15  C    6.839498   8.091765   7.244898   6.907860   7.961188
    16  H    7.483574   8.800281   8.074736   7.609134   8.636621
    17  H    7.490327   8.596682   7.695805   7.206267   8.287898
    18  H    6.759957   8.118261   7.097158   7.248305   8.280694
    19  C    5.603801   6.767131   6.108789   5.477478   6.517034
    20  C    6.161693   7.083272   6.732192   5.340873   6.354178
    21  H    6.761721   7.767353   7.534698   6.101454   7.054245
    22  H    6.941652   7.727124   7.299513   5.785523   6.821429
    23  H    5.563863   6.308221   6.163732   4.408727   5.384114
    24  C    4.365092   5.640013   4.886101   4.746972   5.741193
    25  H    4.461895   5.874670   4.864611   5.387500   6.337789
    26  C    3.082745   4.255183   3.801386   3.422348   4.345069
    27  H    2.487065   3.982318   3.578852   3.827658   4.572713
    28  H    3.519322   4.480155   4.428367   3.248807   4.133349
                   11         12         13         14         15
    11  C    0.000000
    12  H    1.094179   0.000000
    13  H    1.094808   1.772370   0.000000
    14  H    1.092153   1.773873   1.761390   0.000000
    15  C    6.696511   7.349303   7.196291   5.699750   0.000000
    16  H    7.348982   8.066333   7.720714   6.350285   1.095062
    17  H    6.835245   7.352905   7.385957   5.788847   1.094982
    18  H    7.232831   7.878080   7.816962   6.298660   1.095126
    19  C    5.288203   6.025062   5.752265   4.330903   1.506442
    20  C    4.789228   5.520337   5.047951   3.771839   2.528814
    21  H    5.548052   6.343572   5.633113   4.590276   2.840450
    22  H    5.033284   5.584507   5.347792   3.953598   2.735129
    23  H    3.792919   4.587959   3.975568   2.825580   3.487135
    24  C    4.915486   5.699123   5.478937   4.130816   2.480866
    25  H    5.743241   6.471933   6.386678   5.026233   2.656115
    26  C    3.835870   4.725594   4.355625   3.291694   3.924100
    27  H    4.538364   5.463697   4.976373   4.178871   4.520667
    28  H    3.406570   4.411331   3.684868   2.857415   4.237229
                   16         17         18         19         20
    16  H    0.000000
    17  H    1.778063   0.000000
    18  H    1.767905   1.768104   0.000000
    19  C    2.146668   2.147697   2.173167   0.000000
    20  C    2.788555   2.794772   3.484283   1.503939   0.000000
    21  H    2.660930   3.237228   3.828203   2.142884   1.094797
    22  H    3.062702   2.551890   3.755730   2.142776   1.095368
    23  H    3.822478   3.764843   4.334026   2.181998   1.092262
    24  C    3.199974   3.190596   2.613754   1.347455   2.530925
    25  H    3.423633   3.402276   2.317712   2.098282   3.499871
    26  C    4.555165   4.560674   4.116878   2.560849   3.130570
    27  H    5.052123   5.300946   4.532049   3.304525   4.010411
    28  H    4.698128   4.850437   4.660740   2.754957   2.787014
                   21         22         23         24         25
    21  H    0.000000
    22  H    1.775585   0.000000
    23  H    1.768980   1.756135   0.000000
    24  C    3.200406   3.266487   2.717159   0.000000
    25  H    4.102703   4.140097   3.796273   1.090041   0.000000
    26  C    3.797069   3.945548   2.746313   1.505548   2.187995
    27  H    4.502184   4.915945   3.675512   2.116225   2.403464
    28  H    3.310814   3.677641   2.130586   2.162284   3.072530
                   26         27         28
    26  C    0.000000
    27  H    1.097401   0.000000
    28  H    1.094888   1.745442   0.000000
 Stoichiometry    C10H18
 Framework group  C1[X(C10H18)]
 Deg. of freedom    78
 Full point group                 C1      NOp   1
 Largest Abelian subgroup         C1      NOp   1
 Largest concise Abelian subgroup C1      NOp   1
                         Standard orientation:                         
 ---------------------------------------------------------------------
 Center     Atomic      Atomic             Coordinates (Angstroms)
 Number     Number       Type             X           Y           Z
 ---------------------------------------------------------------------
      1          6           0       -0.793772   -0.586512    0.589123
      2          1           0       -0.484582    0.235280    1.246103
      3          1           0       -0.745968   -1.484328    1.220036
      4          6           0       -2.220917   -0.386940    0.122091
      5          6           0       -2.975688   -1.654998   -0.184562
      6          1           0       -2.478736   -2.212231   -0.984909
      7          1           0       -4.003277   -1.458238   -0.508135
      8          1           0       -3.025268   -2.291704    0.704769
      9          6           0       -2.820203    0.813908   -0.001665
     10          1           0       -3.860371    0.846778   -0.324696
     11          6           0       -2.215660    2.161911    0.234764
     12          1           0       -2.690774    2.635792    1.099015
     13          1           0       -2.388671    2.797168   -0.639947
     14          1           0       -1.137464    2.131935    0.406209
     15          6           0        3.965038   -0.407960    0.429697
     16          1           0        4.709134   -0.227457   -0.353183
     17          1           0        4.237079    0.181235    1.311642
     18          1           0        4.023703   -1.466079    0.705821
     19          6           0        2.593416   -0.018268   -0.056266
     20          6           0        2.465993    1.425956   -0.456033
     21          1           0        3.076410    1.626172   -1.342534
     22          1           0        2.815373    2.072720    0.356040
     23          1           0        1.439656    1.725935   -0.678926
     24          6           0        1.596299   -0.923641   -0.097413
     25          1           0        1.804006   -1.940174    0.236814
     26          6           0        0.185954   -0.715574   -0.581466
     27          1           0       -0.084241   -1.577121   -1.205182
     28          1           0        0.111234    0.157019   -1.238565
 ---------------------------------------------------------------------
 Rotational constants (GHZ):           2.2180921           0.5802374           0.4854254
 Leave Link  202 at Fri Sep 17 13:32:35 2021, MaxMem=   524288000 cpu:               0.0 elap:               0.0
 (Enter /opt/gaussian/g16_legacy/l301.exe)
 Standard basis: 6-31G(d,p) (6D, 7F)
 Ernie: Thresh=  0.10000D-02 Tol=  0.10000D-05 Strict=F.
 There are   240 symmetry adapted cartesian basis functions of A   symmetry.
 There are   240 symmetry adapted basis functions of A   symmetry.
   240 basis functions,   406 primitive gaussians,   240 cartesian basis functions
    39 alpha electrons       39 beta electrons
       nuclear repulsion energy       516.4357291943 Hartrees.
 IExCor=    0 DFT=F Ex=HF Corr=None ExCW=0 ScaHFX=  1.000000
 ScaDFX=  1.000000  1.000000  1.000000  1.000000 ScalE2=  1.000000  1.000000
 IRadAn=      5 IRanWt=     -1 IRanGd=            0 ICorTp=0 IEmpDi=  4
 NAtoms=   28 NActive=   28 NUniq=   28 SFac= 1.00D+00 NAtFMM=   60 NAOKFM=F Big=F
 Integral buffers will be    131072 words long.
 Raffenetti 1 integral format.
 Two-electron integral symmetry is turned on.
 Leave Link  301 at Fri Sep 17 13:32:36 2021, MaxMem=   524288000 cpu:               0.1 elap:               0.1
 (Enter /opt/gaussian/g16_legacy/l302.exe)
 NPDir=0 NMtPBC=     1 NCelOv=     1 NCel=       1 NClECP=     1 NCelD=      1
         NCelK=      1 NCelE2=     1 NClLst=     1 CellRange=     0.0.
 One-electron integrals computed using PRISM.
 One-electron integral symmetry used in STVInt
 NBasis=   240 RedAO= T EigKep=  2.10D-03  NBF=   240
 NBsUse=   240 1.00D-06 EigRej= -1.00D+00 NBFU=   240
 Leave Link  302 at Fri Sep 17 13:32:36 2021, MaxMem=   524288000 cpu:               0.3 elap:               0.7
 (Enter /opt/gaussian/g16_legacy/l303.exe)
 DipDrv:  MaxL=1.
 Leave Link  303 at Fri Sep 17 13:32:37 2021, MaxMem=   524288000 cpu:               0.1 elap:               0.3
 (Enter /opt/gaussian/g16_legacy/l401.exe)
 ExpMin= 1.61D-01 ExpMax= 3.05D+03 ExpMxC= 4.57D+02 IAcc=3 IRadAn=         5 AccDes= 0.00D+00
 Harris functional with IExCor=  205 and IRadAn=       5 diagonalized for initial guess.
 HarFok:  IExCor=  205 AccDes= 0.00D+00 IRadAn=         5 IDoV= 1 UseB2=F ITyADJ=14
 ICtDFT=  3500011 ScaDFX=  1.000000  1.000000  1.000000  1.000000
 FoFCou: FMM=F IPFlag=           0 FMFlag=      100000 FMFlg1=           0
         NFxFlg=           0 DoJE=T BraDBF=F KetDBF=T FulRan=T
         wScrn=  0.000000 ICntrl=       500 IOpCl=  0 I1Cent=   200000004 NGrid=           0
         NMat0=    1 NMatS0=      1 NMatT0=    0 NMatD0=    1 NMtDS0=    0 NMtDT0=    0
 Petite list used in FoFCou.
 Harris En= -390.109898255938    
 JPrj=0 DoOrth=F DoCkMO=F.
 Leave Link  401 at Fri Sep 17 13:32:49 2021, MaxMem=   524288000 cpu:              11.1 elap:              12.2
 (Enter /opt/gaussian/g16_legacy/l502.exe)
 Keep R1 ints in memory in canonical form, NReq=425198025.
 FoFCou: FMM=F IPFlag=           0 FMFlag=           0 FMFlg1=           0
         NFxFlg=           0 DoJE=F BraDBF=F KetDBF=F FulRan=T
         wScrn=  0.000000 ICntrl=       600 IOpCl=  0 I1Cent=           0 NGrid=           0
         NMat0=    1 NMatS0=  28920 NMatT0=    0 NMatD0=    1 NMtDS0=    0 NMtDT0=    0
 Symmetry not used in FoFCou.
 Two-electron integral symmetry not used.
 Closed shell SCF:
 Using DIIS extrapolation, IDIIS=  1040.
 NGot=   524288000 LenX=   105970886 LenY=   105912845
 Requested convergence on RMS density matrix=1.00D-08 within 128 cycles.
 Requested convergence on MAX density matrix=1.00D-06.
 Requested convergence on             energy=1.00D-06.
 No special actions if energy rises.

 Cycle   1  Pass 1  IDiag  1:
 E= -388.533181476878    
 DIIS: error= 5.21D-02 at cycle   1 NSaved=   1.
 NSaved= 1 IEnMin= 1 EnMin= -388.533181476878     IErMin= 1 ErrMin= 5.21D-02
 ErrMax= 5.21D-02  0.00D+00 EMaxC= 1.00D-01 BMatC= 8.07D-01 BMatP= 8.07D-01
 IDIUse=3 WtCom= 4.79D-01 WtEn= 5.21D-01
 Coeff-Com:  0.100D+01
 Coeff-En:   0.100D+01
 Coeff:      0.100D+01
 Gap=     0.508 Goal=   None    Shift=    0.000
 GapD=    0.508 DampG=2.000 DampE=0.500 DampFc=1.0000 IDamp=-1.
 RMSDP=4.00D-03 MaxDP=1.14D-01              OVMax= 1.33D-01

 Cycle   2  Pass 1  IDiag  1:
 E= -389.073875431686     Delta-E=       -0.540693954808 Rises=F Damp=F
 DIIS: error= 1.59D-02 at cycle   2 NSaved=   2.
 NSaved= 2 IEnMin= 2 EnMin= -389.073875431686     IErMin= 2 ErrMin= 1.59D-02
 ErrMax= 1.59D-02  0.00D+00 EMaxC= 1.00D-01 BMatC= 8.66D-02 BMatP= 8.07D-01
 IDIUse=3 WtCom= 8.41D-01 WtEn= 1.59D-01
 Coeff-Com:  0.183D+00 0.817D+00
 Coeff-En:   0.000D+00 0.100D+01
 Coeff:      0.154D+00 0.846D+00
 Gap=     0.549 Goal=   None    Shift=    0.000
 RMSDP=1.63D-03 MaxDP=3.04D-02 DE=-5.41D-01 OVMax= 4.61D-02

 Cycle   3  Pass 1  IDiag  1:
 E= -389.151435605803     Delta-E=       -0.077560174117 Rises=F Damp=F
 DIIS: error= 3.43D-03 at cycle   3 NSaved=   3.
 NSaved= 3 IEnMin= 3 EnMin= -389.151435605803     IErMin= 3 ErrMin= 3.43D-03
 ErrMax= 3.43D-03  0.00D+00 EMaxC= 1.00D-01 BMatC= 3.14D-03 BMatP= 8.66D-02
 IDIUse=3 WtCom= 9.66D-01 WtEn= 3.43D-02
 Coeff-Com: -0.245D-01 0.106D+00 0.919D+00
 Coeff-En:   0.000D+00 0.000D+00 0.100D+01
 Coeff:     -0.236D-01 0.102D+00 0.921D+00
 Gap=     0.499 Goal=   None    Shift=    0.000
 RMSDP=2.59D-04 MaxDP=7.15D-03 DE=-7.76D-02 OVMax= 1.01D-02

 Cycle   4  Pass 1  IDiag  1:
 E= -389.155061425591     Delta-E=       -0.003625819787 Rises=F Damp=F
 DIIS: error= 5.31D-04 at cycle   4 NSaved=   4.
 NSaved= 4 IEnMin= 4 EnMin= -389.155061425591     IErMin= 4 ErrMin= 5.31D-04
 ErrMax= 5.31D-04  0.00D+00 EMaxC= 1.00D-01 BMatC= 9.29D-05 BMatP= 3.14D-03
 IDIUse=3 WtCom= 9.95D-01 WtEn= 5.31D-03
 Coeff-Com: -0.424D-02-0.189D-02 0.950D-01 0.911D+00
 Coeff-En:   0.000D+00 0.000D+00 0.000D+00 0.100D+01
 Coeff:     -0.422D-02-0.188D-02 0.945D-01 0.912D+00
 Gap=     0.499 Goal=   None    Shift=    0.000
 RMSDP=7.39D-05 MaxDP=1.49D-03 DE=-3.63D-03 OVMax= 3.14D-03

 Cycle   5  Pass 1  IDiag  1:
 E= -389.155185781956     Delta-E=       -0.000124356365 Rises=F Damp=F
 DIIS: error= 1.63D-04 at cycle   5 NSaved=   5.
 NSaved= 5 IEnMin= 5 EnMin= -389.155185781956     IErMin= 5 ErrMin= 1.63D-04
 ErrMax= 1.63D-04  0.00D+00 EMaxC= 1.00D-01 BMatC= 1.60D-05 BMatP= 9.29D-05
 IDIUse=3 WtCom= 9.98D-01 WtEn= 1.63D-03
 Coeff-Com:  0.241D-02-0.152D-01-0.102D+00 0.176D+00 0.939D+00
 Coeff-En:   0.000D+00 0.000D+00 0.000D+00 0.000D+00 0.100D+01
 Coeff:      0.241D-02-0.152D-01-0.102D+00 0.175D+00 0.939D+00
 Gap=     0.500 Goal=   None    Shift=    0.000
 RMSDP=3.00D-05 MaxDP=6.56D-04 DE=-1.24D-04 OVMax= 9.24D-04

 Cycle   6  Pass 1  IDiag  1:
 E= -389.155207270459     Delta-E=       -0.000021488503 Rises=F Damp=F
 DIIS: error= 3.58D-05 at cycle   6 NSaved=   6.
 NSaved= 6 IEnMin= 6 EnMin= -389.155207270459     IErMin= 6 ErrMin= 3.58D-05
 ErrMax= 3.58D-05  0.00D+00 EMaxC= 1.00D-01 BMatC= 5.50D-07 BMatP= 1.60D-05
 IDIUse=1 WtCom= 1.00D+00 WtEn= 0.00D+00
 Coeff-Com:  0.720D-03-0.335D-02-0.261D-01-0.433D-02 0.177D+00 0.856D+00
 Coeff:      0.720D-03-0.335D-02-0.261D-01-0.433D-02 0.177D+00 0.856D+00
 Gap=     0.500 Goal=   None    Shift=    0.000
 RMSDP=5.30D-06 MaxDP=1.61D-04 DE=-2.15D-05 OVMax= 3.24D-04

 Cycle   7  Pass 1  IDiag  1:
 E= -389.155208111870     Delta-E=       -0.000000841411 Rises=F Damp=F
 DIIS: error= 1.03D-05 at cycle   7 NSaved=   7.
 NSaved= 7 IEnMin= 7 EnMin= -389.155208111870     IErMin= 7 ErrMin= 1.03D-05
 ErrMax= 1.03D-05  0.00D+00 EMaxC= 1.00D-01 BMatC= 5.45D-08 BMatP= 5.50D-07
 IDIUse=1 WtCom= 1.00D+00 WtEn= 0.00D+00
 Coeff-Com: -0.495D-04 0.464D-03 0.301D-02-0.105D-01-0.468D-01 0.145D+00
 Coeff-Com:  0.909D+00
 Coeff:     -0.495D-04 0.464D-03 0.301D-02-0.105D-01-0.468D-01 0.145D+00
 Coeff:      0.909D+00
 Gap=     0.500 Goal=   None    Shift=    0.000
 RMSDP=1.71D-06 MaxDP=4.10D-05 DE=-8.41D-07 OVMax= 8.43D-05

 Cycle   8  Pass 1  IDiag  1:
 E= -389.155208200911     Delta-E=       -0.000000089042 Rises=F Damp=F
 DIIS: error= 3.52D-06 at cycle   8 NSaved=   8.
 NSaved= 8 IEnMin= 8 EnMin= -389.155208200911     IErMin= 8 ErrMin= 3.52D-06
 ErrMax= 3.52D-06  0.00D+00 EMaxC= 1.00D-01 BMatC= 5.11D-09 BMatP= 5.45D-08
 IDIUse=1 WtCom= 1.00D+00 WtEn= 0.00D+00
 Coeff-Com: -0.581D-04 0.249D-03 0.208D-02 0.315D-02-0.171D-01-0.804D-01
 Coeff-Com: -0.123D+00 0.121D+01
 Coeff:     -0.581D-04 0.249D-03 0.208D-02 0.315D-02-0.171D-01-0.804D-01
 Coeff:     -0.123D+00 0.121D+01
 Gap=     0.500 Goal=   None    Shift=    0.000
 RMSDP=7.86D-07 MaxDP=2.41D-05 DE=-8.90D-08 OVMax= 5.82D-05

 Cycle   9  Pass 1  IDiag  1:
 E= -389.155208216799     Delta-E=       -0.000000015888 Rises=F Damp=F
 DIIS: error= 1.46D-06 at cycle   9 NSaved=   9.
 NSaved= 9 IEnMin= 9 EnMin= -389.155208216799     IErMin= 9 ErrMin= 1.46D-06
 ErrMax= 1.46D-06  0.00D+00 EMaxC= 1.00D-01 BMatC= 7.40D-10 BMatP= 5.11D-09
 IDIUse=1 WtCom= 1.00D+00 WtEn= 0.00D+00
 Coeff-Com:  0.930D-05-0.691D-04-0.481D-03 0.144D-02 0.386D-02 0.103D-03
 Coeff-Com: -0.865D-01-0.120D+00 0.120D+01
 Coeff:      0.930D-05-0.691D-04-0.481D-03 0.144D-02 0.386D-02 0.103D-03
 Coeff:     -0.865D-01-0.120D+00 0.120D+01
 Gap=     0.500 Goal=   None    Shift=    0.000
 RMSDP=2.99D-07 MaxDP=1.24D-05 DE=-1.59D-08 OVMax= 2.71D-05

 Cycle  10  Pass 1  IDiag  1:
 E= -389.155208219231     Delta-E=       -0.000000002432 Rises=F Damp=F
 DIIS: error= 3.97D-07 at cycle  10 NSaved=  10.
 NSaved=10 IEnMin=10 EnMin= -389.155208219231     IErMin=10 ErrMin= 3.97D-07
 ErrMax= 3.97D-07  0.00D+00 EMaxC= 1.00D-01 BMatC= 1.21D-10 BMatP= 7.40D-10
 IDIUse=1 WtCom= 1.00D+00 WtEn= 0.00D+00
 Coeff-Com:  0.953D-05-0.464D-04-0.369D-03-0.135D-03 0.233D-02 0.142D-01
 Coeff-Com:  0.595D-02-0.211D+00 0.144D+00 0.105D+01
 Coeff:      0.953D-05-0.464D-04-0.369D-03-0.135D-03 0.233D-02 0.142D-01
 Coeff:      0.595D-02-0.211D+00 0.144D+00 0.105D+01
 Gap=     0.500 Goal=   None    Shift=    0.000
 RMSDP=1.24D-07 MaxDP=3.07D-06 DE=-2.43D-09 OVMax= 9.88D-06

 Cycle  11  Pass 1  IDiag  1:
 E= -389.155208219556     Delta-E=       -0.000000000326 Rises=F Damp=F
 DIIS: error= 1.55D-07 at cycle  11 NSaved=  11.
 NSaved=11 IEnMin=11 EnMin= -389.155208219556     IErMin=11 ErrMin= 1.55D-07
 ErrMax= 1.55D-07  0.00D+00 EMaxC= 1.00D-01 BMatC= 9.54D-12 BMatP= 1.21D-10
 IDIUse=1 WtCom= 1.00D+00 WtEn= 0.00D+00
 Coeff-Com:  0.395D-06 0.837D-06 0.995D-06-0.149D-03-0.305D-03 0.278D-02
 Coeff-Com:  0.110D-01-0.153D-01-0.107D+00 0.164D+00 0.945D+00
 Coeff:      0.395D-06 0.837D-06 0.995D-06-0.149D-03-0.305D-03 0.278D-02
 Coeff:      0.110D-01-0.153D-01-0.107D+00 0.164D+00 0.945D+00
 Gap=     0.500 Goal=   None    Shift=    0.000
 RMSDP=2.76D-08 MaxDP=1.16D-06 DE=-3.26D-10 OVMax= 2.51D-06

 Cycle  12  Pass 1  IDiag  1:
 E= -389.155208219576     Delta-E=       -0.000000000019 Rises=F Damp=F
 DIIS: error= 3.63D-08 at cycle  12 NSaved=  12.
 NSaved=12 IEnMin=12 EnMin= -389.155208219576     IErMin=12 ErrMin= 3.63D-08
 ErrMax= 3.63D-08  0.00D+00 EMaxC= 1.00D-01 BMatC= 1.17D-12 BMatP= 9.54D-12
 IDIUse=1 WtCom= 1.00D+00 WtEn= 0.00D+00
 Coeff-Com: -0.102D-05 0.547D-05 0.429D-04 0.323D-05-0.343D-03-0.126D-02
 Coeff-Com:  0.366D-03 0.217D-01-0.321D-01-0.113D+00 0.983D-01 0.103D+01
 Coeff:     -0.102D-05 0.547D-05 0.429D-04 0.323D-05-0.343D-03-0.126D-02
 Coeff:      0.366D-03 0.217D-01-0.321D-01-0.113D+00 0.983D-01 0.103D+01
 Gap=     0.500 Goal=   None    Shift=    0.000
 RMSDP=1.18D-08 MaxDP=3.33D-07 DE=-1.93D-11 OVMax= 8.46D-07

 Cycle  13  Pass 1  IDiag  1:
 E= -389.155208219583     Delta-E=       -0.000000000007 Rises=F Damp=F
 DIIS: error= 1.06D-08 at cycle  13 NSaved=  13.
 NSaved=13 IEnMin=13 EnMin= -389.155208219583     IErMin=13 ErrMin= 1.06D-08
 ErrMax= 1.06D-08  0.00D+00 EMaxC= 1.00D-01 BMatC= 5.47D-14 BMatP= 1.17D-12
 IDIUse=1 WtCom= 1.00D+00 WtEn= 0.00D+00
 Coeff-Com: -0.122D-06 0.462D-06 0.389D-05 0.136D-04-0.170D-04-0.298D-03
 Coeff-Com: -0.849D-03 0.352D-02 0.515D-02-0.212D-01-0.612D-01 0.111D+00
 Coeff-Com:  0.964D+00
 Coeff:     -0.122D-06 0.462D-06 0.389D-05 0.136D-04-0.170D-04-0.298D-03
 Coeff:     -0.849D-03 0.352D-02 0.515D-02-0.212D-01-0.612D-01 0.111D+00
 Coeff:      0.964D+00
 Gap=     0.500 Goal=   None    Shift=    0.000
 RMSDP=2.13D-09 MaxDP=7.03D-08 DE=-6.82D-12 OVMax= 1.05D-07

 SCF Done:  E(RHF) =  -389.155208220     A.U. after   13 cycles
            NFock= 13  Conv=0.21D-08     -V/T= 2.0014
 KE= 3.886259839227D+02 PE=-1.937505246739D+03 EE= 6.432883254023D+02
 Leave Link  502 at Fri Sep 17 13:33:31 2021, MaxMem=   524288000 cpu:              41.2 elap:              41.5
 (Enter /opt/gaussian/g16_legacy/l801.exe)
 ExpMin= 1.61D-01 ExpMax= 3.05D+03 ExpMxC= 4.57D+02 IAcc=3 IRadAn=         5 AccDes= 0.00D+00
 HarFok:  IExCor=  205 AccDes= 0.00D+00 IRadAn=         5 IDoV=-2 UseB2=F ITyADJ=14
 ICtDFT= 12500011 ScaDFX=  1.000000  1.000000  1.000000  1.000000
 Largest valence mixing into a core orbital is  1.98D-04
 Largest core mixing into a valence orbital is  3.52D-05
 Range of M.O.s used for correlation:    11   240
 NBasis=   240 NAE=    39 NBE=    39 NFC=    10 NFV=     0
 NROrb=    230 NOA=    29 NOB=    29 NVA=   201 NVB=   201
 Leave Link  801 at Fri Sep 17 13:33:32 2021, MaxMem=   524288000 cpu:               1.6 elap:               1.6
 (Enter /opt/gaussian/g16_legacy/l906.exe)
 Frozen-core derivative calculation, NFC=  10 NFV=   0.
 FulOut=F Deriv=T AODrv=T NAtomX=    28
   MMem=          88  MDisk=          29 MDiskD=          29
  W3Min=     2246400 MinDsk=     2795480 NBas6D=         240
 NBas2D=       29244    NTT=       28920    LW2=     2040000
    MDV=   523626386 MDiskM=       30186 NBas2p=       24383
 Fully direct method using O(ONN) memory.
 IMap=   1   2   3   4   5   6   7   8   9  10  11  12  13  14  15  16  17  18  19  20
 IMap=  21  22  23  24  25  26  27  28  29  30  31  32  33  34  35  36  37  38  39
 JobTyp=1 Pass  1:  I=  11 to  39 NPSUse=  1 ParTrn=F ParDer=F DoDerP=T.
 Spin components of T(2) and E(2):
     alpha-alpha T2 =       0.5715152322D-01 E2=     -0.1638027958D+00
     alpha-beta  T2 =       0.3618157397D+00 E2=     -0.1089337936D+01
     beta-beta   T2 =       0.5715152322D-01 E2=     -0.1638027958D+00
 The integrals were generated   1 times.
 ANorm=    0.1214956290D+01
 E2 =    -0.1416943527D+01 EUMP2 =    -0.39057215174689D+03
 Leave Link  906 at Fri Sep 17 13:38:32 2021, MaxMem=   524288000 cpu:             299.5 elap:             299.6
 (Enter /opt/gaussian/g16_legacy/l1002.exe)
 Minotr:  Closed shell wavefunction.
          Computing MP2/KS-MP2 derivatives.
          Using Z-Vector for PSCF gradient.
          Skipping F1 and S1 gradient terms here.
          IDoAtm=1111111111111111111111111111
          Frozen-core window.
          Direct CPHF calculation.
          Differentiating once with respect to electric field.
                with respect to dipole field.
          Differentiating once with respect to nuclear coordinates.
          Requested convergence is 1.0D-10 RMS, and 1.0D-09 maximum.
          NewPWx=F KeepS1=T KeepF1=T KeepIn=T MapXYZ=F SortEE=F KeepMc=T.
 Keep R1 ints in memory in canonical form, NReq=425201067.
 FoFCou: FMM=F IPFlag=           0 FMFlag=           0 FMFlg1=           0
         NFxFlg=           0 DoJE=F BraDBF=F KetDBF=F FulRan=T
         wScrn=  0.000000 ICntrl=       600 IOpCl=  0 I1Cent=           0 NGrid=           0
         NMat0=    1 NMatS0=  28920 NMatT0=    0 NMatD0=    1 NMtDS0=    0 NMtDT0=    0
 Symmetry not used in FoFCou.
 Two-electron integral symmetry not used.
          MDV=     524288000 using IRadAn=       5.
          Solving linear equations separately, MaxMat=       0.
          There are     1 degrees of freedom in the 1st order CPHF.  IDoFFX=0 NUNeed=     1.
 LinEq1:  Iter=  0 NonCon=     1 RMS=2.55D-03 Max=3.76D-02 NDo=     1
 AX will form     1 AO Fock derivatives at one time.
 LinEq1:  Iter=  1 NonCon=     1 RMS=6.90D-04 Max=9.74D-03 NDo=     1
 LinEq1:  Iter=  2 NonCon=     1 RMS=1.61D-04 Max=4.14D-03 NDo=     1
 LinEq1:  Iter=  3 NonCon=     1 RMS=4.31D-05 Max=5.08D-04 NDo=     1
 LinEq1:  Iter=  4 NonCon=     1 RMS=1.99D-05 Max=8.55D-04 NDo=     1
 LinEq1:  Iter=  5 NonCon=     1 RMS=5.06D-06 Max=8.26D-05 NDo=     1
 LinEq1:  Iter=  6 NonCon=     1 RMS=1.63D-06 Max=2.68D-05 NDo=     1
 LinEq1:  Iter=  7 NonCon=     1 RMS=4.13D-07 Max=4.19D-06 NDo=     1
 LinEq1:  Iter=  8 NonCon=     1 RMS=1.01D-07 Max=1.86D-06 NDo=     1
 LinEq1:  Iter=  9 NonCon=     1 RMS=2.33D-08 Max=6.32D-07 NDo=     1
 LinEq1:  Iter= 10 NonCon=     1 RMS=6.43D-09 Max=1.62D-07 NDo=     1
 LinEq1:  Iter= 11 NonCon=     1 RMS=1.89D-09 Max=3.64D-08 NDo=     1
 LinEq1:  Iter= 12 NonCon=     1 RMS=4.21D-10 Max=8.64D-09 NDo=     1
 LinEq1:  Iter= 13 NonCon=     1 RMS=1.13D-10 Max=1.03D-09 NDo=     1
 LinEq1:  Iter= 14 NonCon=     1 RMS=4.87D-11 Max=1.82D-09 NDo=     1
 LinEq1:  Iter= 15 NonCon=     0 RMS=1.45D-11 Max=1.98D-10 NDo=     1
 Linear equations converged to 1.000D-10 1.000D-09 after    15 iterations.
 End of Minotr F.D. properties file   721 does not exist.
 End of Minotr F.D. properties file   722 does not exist.
 End of Minotr F.D. properties file   788 does not exist.
 Leave Link 1002 at Fri Sep 17 13:39:19 2021, MaxMem=   524288000 cpu:              47.4 elap:              47.4
 (Enter /opt/gaussian/g16_legacy/l601.exe)
 Copying SCF densities to generalized density rwf, IOpCl= 0 IROHF=0.

 **********************************************************************

            Population analysis using the SCF density.

 **********************************************************************

 Orbital symmetries:
       Occupied  (A) (A) (A) (A) (A) (A) (A) (A) (A) (A) (A) (A)
                 (A) (A) (A) (A) (A) (A) (A) (A) (A) (A) (A) (A)
                 (A) (A) (A) (A) (A) (A) (A) (A) (A) (A) (A) (A)
                 (A) (A) (A)
       Virtual   (A) (A) (A) (A) (A) (A) (A) (A) (A) (A) (A) (A)
                 (A) (A) (A) (A) (A) (A) (A) (A) (A) (A) (A) (A)
                 (A) (A) (A) (A) (A) (A) (A) (A) (A) (A) (A) (A)
                 (A) (A) (A) (A) (A) (A) (A) (A) (A) (A) (A) (A)
                 (A) (A) (A) (A) (A) (A) (A) (A) (A) (A) (A) (A)
                 (A) (A) (A) (A) (A) (A) (A) (A) (A) (A) (A) (A)
                 (A) (A) (A) (A) (A) (A) (A) (A) (A) (A) (A) (A)
                 (A) (A) (A) (A) (A) (A) (A) (A) (A) (A) (A) (A)
                 (A) (A) (A) (A) (A) (A) (A) (A) (A) (A) (A) (A)
                 (A) (A) (A) (A) (A) (A) (A) (A) (A) (A) (A) (A)
                 (A) (A) (A) (A) (A) (A) (A) (A) (A) (A) (A) (A)
                 (A) (A) (A) (A) (A) (A) (A) (A) (A) (A) (A) (A)
                 (A) (A) (A) (A) (A) (A) (A) (A) (A) (A) (A) (A)
                 (A) (A) (A) (A) (A) (A) (A) (A) (A) (A) (A) (A)
                 (A) (A) (A) (A) (A) (A) (A) (A) (A) (A) (A) (A)
                 (A) (A) (A) (A) (A) (A) (A) (A) (A) (A) (A) (A)
                 (A) (A) (A) (A) (A) (A) (A) (A) (A)
 The electronic state is 1-A.
 Alpha  occ. eigenvalues --  -11.23061 -11.22505 -11.21999 -11.21921 -11.21883
 Alpha  occ. eigenvalues --  -11.21652 -11.21554 -11.21484 -11.21456 -11.21438
 Alpha  occ. eigenvalues --   -1.10624  -1.08327  -1.01912  -0.98013  -0.93647
 Alpha  occ. eigenvalues --   -0.91775  -0.86755  -0.82685  -0.70600  -0.69344
 Alpha  occ. eigenvalues --   -0.64585  -0.61546  -0.60102  -0.59029  -0.58087
 Alpha  occ. eigenvalues --   -0.56803  -0.55367  -0.55150  -0.53547  -0.51982
 Alpha  occ. eigenvalues --   -0.51717  -0.51322  -0.50592  -0.49228  -0.48276
 Alpha  occ. eigenvalues --   -0.46014  -0.44273  -0.33355  -0.31525
 Alpha virt. eigenvalues --    0.18455   0.19494   0.22038   0.24453   0.25183
 Alpha virt. eigenvalues --    0.27141   0.28395   0.28932   0.30250   0.30504
 Alpha virt. eigenvalues --    0.31237   0.32117   0.33135   0.33436   0.34030
 Alpha virt. eigenvalues --    0.35676   0.35774   0.36970   0.38998   0.40649
 Alpha virt. eigenvalues --    0.41063   0.42593   0.43322   0.44192   0.45151
 Alpha virt. eigenvalues --    0.51684   0.54046   0.61169   0.62445   0.70139
 Alpha virt. eigenvalues --    0.71102   0.71886   0.74280   0.76418   0.76616
 Alpha virt. eigenvalues --    0.76877   0.78795   0.79454   0.81138   0.82036
 Alpha virt. eigenvalues --    0.83812   0.85654   0.88080   0.91265   0.92027
 Alpha virt. eigenvalues --    0.92894   0.95179   0.97059   0.98262   0.99206
 Alpha virt. eigenvalues --    0.99752   1.00203   1.02302   1.03924   1.06181
 Alpha virt. eigenvalues --    1.07863   1.08638   1.08808   1.11199   1.12390
 Alpha virt. eigenvalues --    1.12559   1.13434   1.14584   1.14926   1.15820
 Alpha virt. eigenvalues --    1.16164   1.16402   1.18222   1.18705   1.20093
 Alpha virt. eigenvalues --    1.20659   1.22066   1.22852   1.25019   1.27540
 Alpha virt. eigenvalues --    1.34173   1.40672   1.41849   1.43737   1.45169
 Alpha virt. eigenvalues --    1.47558   1.53478   1.56256   1.56979   1.58246
 Alpha virt. eigenvalues --    1.59853   1.62719   1.65795   1.69519   1.70788
 Alpha virt. eigenvalues --    1.75330   1.82526   1.92036   1.92193   1.95500
 Alpha virt. eigenvalues --    1.98631   2.01126   2.02848   2.04182   2.08702
 Alpha virt. eigenvalues --    2.09243   2.11123   2.11377   2.13104   2.14506
 Alpha virt. eigenvalues --    2.15428   2.17689   2.19728   2.23576   2.27382
 Alpha virt. eigenvalues --    2.28338   2.29993   2.32200   2.34974   2.35568
 Alpha virt. eigenvalues --    2.35647   2.35783   2.39325   2.39847   2.40348
 Alpha virt. eigenvalues --    2.41282   2.41826   2.43040   2.45162   2.45386
 Alpha virt. eigenvalues --    2.47036   2.48342   2.49336   2.50339   2.54526
 Alpha virt. eigenvalues --    2.56589   2.57719   2.61275   2.62184   2.64352
 Alpha virt. eigenvalues --    2.66341   2.67161   2.72033   2.72994   2.73747
 Alpha virt. eigenvalues --    2.75716   2.77701   2.81089   2.82806   2.85156
 Alpha virt. eigenvalues --    2.87730   2.89152   2.91919   2.93442   2.94436
 Alpha virt. eigenvalues --    2.97095   2.99035   3.01166   3.02600   3.05101
 Alpha virt. eigenvalues --    3.05825   3.06634   3.08509   3.13017   3.15942
 Alpha virt. eigenvalues --    3.17135   3.18160   3.19614   3.20682   3.21266
 Alpha virt. eigenvalues --    3.23189   3.24413   3.26462   3.27244   3.36667
 Alpha virt. eigenvalues --    3.39076   3.44608   3.45619   3.55540   3.57292
 Alpha virt. eigenvalues --    3.58699   3.61059   3.66894   3.73952   3.78196
 Alpha virt. eigenvalues --    3.78865   3.80511   3.81324   3.82329   3.82835
 Alpha virt. eigenvalues --    3.84215   3.85755   3.87662   3.89514   3.91180
 Alpha virt. eigenvalues --    3.95900   4.59094   4.62634   4.74429   4.82816
 Alpha virt. eigenvalues --    4.88836   4.92667   4.93351   5.07551   5.10287
 Alpha virt. eigenvalues --    5.16870
          Condensed to atoms (all electrons):
               1          2          3          4          5          6
     1  C    5.001839   0.412348   0.413508   0.340285  -0.058748  -0.000530
     2  H    0.412348   0.571714  -0.030234  -0.040534   0.003238  -0.000030
     3  H    0.413508  -0.030234   0.588507  -0.045055  -0.004692  -0.000276
     4  C    0.340285  -0.040534  -0.045055   4.955049   0.349337  -0.045809
     5  C   -0.058748   0.003238  -0.004692   0.349337   4.896463   0.400280
     6  H   -0.000530  -0.000030  -0.000276  -0.045809   0.400280   0.594782
     7  H    0.003675  -0.000103   0.000081  -0.041403   0.406177  -0.028079
     8  H   -0.003554  -0.000016   0.002571  -0.043067   0.397380  -0.035017
     9  C   -0.044043  -0.002231   0.001919   0.698835  -0.045937  -0.001035
    10  H    0.003079   0.000060  -0.000114  -0.036525  -0.006481   0.000124
    11  C   -0.007062  -0.002135   0.000138  -0.050688   0.003424  -0.000100
    12  H    0.000227   0.000172   0.000028  -0.001413  -0.000116  -0.000005
    13  H    0.000232  -0.000034  -0.000010   0.000595  -0.000100   0.000015
    14  H   -0.001827  -0.001334   0.000004  -0.000419   0.000092   0.000000
    15  C   -0.000101  -0.000042  -0.000000   0.000002  -0.000000  -0.000000
    16  H   -0.000004   0.000001   0.000000   0.000000  -0.000000   0.000000
    17  H    0.000022  -0.000005  -0.000001  -0.000000   0.000000   0.000000
    18  H   -0.000003  -0.000002   0.000002   0.000000  -0.000000  -0.000000
    19  C   -0.003607   0.001046   0.000615   0.000006  -0.000002   0.000000
    20  C    0.000597   0.000160  -0.000016  -0.000017  -0.000000  -0.000000
    21  H   -0.000041   0.000014   0.000000   0.000001  -0.000000   0.000000
    22  H    0.000077  -0.000076  -0.000001  -0.000002   0.000000   0.000000
    23  H   -0.000053  -0.000052  -0.000012  -0.000027  -0.000000   0.000000
    24  C   -0.063070  -0.000807  -0.000608   0.006130  -0.000158  -0.000086
    25  H    0.000004   0.000213   0.001003  -0.000155   0.000010   0.000012
    26  C    0.326225  -0.039860  -0.044602  -0.057355  -0.000188   0.000810
    27  H   -0.045140   0.004292  -0.002605  -0.001852  -0.000392  -0.000187
    28  H   -0.040298  -0.002146   0.004203  -0.001437   0.000317  -0.000009
               7          8          9         10         11         12
     1  C    0.003675  -0.003554  -0.044043   0.003079  -0.007062   0.000227
     2  H   -0.000103  -0.000016  -0.002231   0.000060  -0.002135   0.000172
     3  H    0.000081   0.002571   0.001919  -0.000114   0.000138   0.000028
     4  C   -0.041403  -0.043067   0.698835  -0.036525  -0.050688  -0.001413
     5  C    0.406177   0.397380  -0.045937  -0.006481   0.003424  -0.000116
     6  H   -0.028079  -0.035017  -0.001035   0.000124  -0.000100  -0.000005
     7  H    0.571032  -0.027611  -0.002737   0.002221   0.000137  -0.000004
     8  H   -0.027611   0.593628  -0.000424   0.000248  -0.000114   0.000021
     9  C   -0.002737  -0.000424   4.939964   0.404874   0.337734  -0.044348
    10  H    0.002221   0.000248   0.404874   0.559340  -0.043637  -0.000221
    11  C    0.000137  -0.000114   0.337734  -0.043637   4.906192   0.400028
    12  H   -0.000004   0.000021  -0.044348  -0.000221   0.400028   0.584241
    13  H   -0.000009  -0.000004  -0.042843  -0.002646   0.403004  -0.033273
    14  H    0.000004  -0.000001  -0.041936   0.003315   0.408026  -0.026855
    15  C    0.000000  -0.000000  -0.000000   0.000000  -0.000000   0.000000
    16  H    0.000000   0.000000   0.000000   0.000000  -0.000000   0.000000
    17  H   -0.000000  -0.000000  -0.000000  -0.000000   0.000000  -0.000000
    18  H    0.000000  -0.000000  -0.000000   0.000000   0.000000  -0.000000
    19  C    0.000000   0.000000   0.000001   0.000000   0.000007  -0.000000
    20  C   -0.000000  -0.000000   0.000010  -0.000000  -0.000097   0.000002
    21  H    0.000000   0.000000   0.000000   0.000000   0.000002   0.000000
    22  H   -0.000000  -0.000000   0.000000  -0.000000  -0.000003  -0.000000
    23  H    0.000000  -0.000000  -0.000032   0.000000   0.000040  -0.000008
    24  C    0.000003   0.000000   0.000070   0.000002  -0.000032   0.000002
    25  H   -0.000000  -0.000002  -0.000002  -0.000000   0.000000   0.000000
    26  C   -0.000097   0.000027  -0.004367  -0.000116   0.000690  -0.000050
    27  H   -0.000025   0.000093   0.000514   0.000004  -0.000030  -0.000000
    28  H   -0.000010   0.000012   0.001216  -0.000044   0.000070   0.000023
              13         14         15         16         17         18
     1  C    0.000232  -0.001827  -0.000101  -0.000004   0.000022  -0.000003
     2  H   -0.000034  -0.001334  -0.000042   0.000001  -0.000005  -0.000002
     3  H   -0.000010   0.000004  -0.000000   0.000000  -0.000001   0.000002
     4  C    0.000595  -0.000419   0.000002   0.000000  -0.000000   0.000000
     5  C   -0.000100   0.000092  -0.000000  -0.000000   0.000000  -0.000000
     6  H    0.000015   0.000000  -0.000000   0.000000   0.000000  -0.000000
     7  H   -0.000009   0.000004   0.000000   0.000000  -0.000000   0.000000
     8  H   -0.000004  -0.000001  -0.000000   0.000000  -0.000000  -0.000000
     9  C   -0.042843  -0.041936  -0.000000   0.000000  -0.000000  -0.000000
    10  H   -0.002646   0.003315   0.000000   0.000000  -0.000000   0.000000
    11  C    0.403004   0.408026  -0.000000  -0.000000   0.000000   0.000000
    12  H   -0.033273  -0.026855   0.000000   0.000000  -0.000000  -0.000000
    13  H    0.586801  -0.030017  -0.000000  -0.000000   0.000000  -0.000000
    14  H   -0.030017   0.573878   0.000000  -0.000000  -0.000000  -0.000000
    15  C   -0.000000   0.000000   4.903296   0.399248   0.396983   0.405423
    16  H   -0.000000  -0.000000   0.399248   0.593118  -0.034905  -0.027565
    17  H    0.000000  -0.000000   0.396983  -0.034905   0.594313  -0.027368
    18  H   -0.000000  -0.000000   0.405423  -0.027565  -0.027368   0.568031
    19  C    0.000000  -0.000013   0.352270  -0.045767  -0.044299  -0.040393
    20  C   -0.000004   0.000010  -0.065381  -0.001106  -0.002140   0.003695
    21  H   -0.000000  -0.000006  -0.001685   0.002553  -0.000371  -0.000079
    22  H    0.000000   0.000034  -0.003428  -0.000507   0.002847   0.000010
    23  H    0.000042   0.000570   0.003678  -0.000023  -0.000072  -0.000108
    24  C   -0.000004   0.000003  -0.044867  -0.001135  -0.000548  -0.002386
    25  H    0.000000  -0.000001  -0.006747   0.000150   0.000235   0.002177
    26  C    0.000091  -0.000212   0.003153  -0.000124  -0.000086   0.000146
    27  H    0.000000  -0.000008  -0.000102   0.000012  -0.000002  -0.000011
    28  H   -0.000079  -0.000251   0.000071   0.000004  -0.000004   0.000006
              19         20         21         22         23         24
     1  C   -0.003607   0.000597  -0.000041   0.000077  -0.000053  -0.063070
     2  H    0.001046   0.000160   0.000014  -0.000076  -0.000052  -0.000807
     3  H    0.000615  -0.000016   0.000000  -0.000001  -0.000012  -0.000608
     4  C    0.000006  -0.000017   0.000001  -0.000002  -0.000027   0.006130
     5  C   -0.000002  -0.000000  -0.000000   0.000000  -0.000000  -0.000158
     6  H    0.000000  -0.000000   0.000000   0.000000   0.000000  -0.000086
     7  H    0.000000  -0.000000   0.000000  -0.000000   0.000000   0.000003
     8  H    0.000000  -0.000000   0.000000  -0.000000  -0.000000   0.000000
     9  C    0.000001   0.000010   0.000000   0.000000  -0.000032   0.000070
    10  H    0.000000  -0.000000   0.000000  -0.000000   0.000000   0.000002
    11  C    0.000007  -0.000097   0.000002  -0.000003   0.000040  -0.000032
    12  H   -0.000000   0.000002   0.000000  -0.000000  -0.000008   0.000002
    13  H    0.000000  -0.000004  -0.000000   0.000000   0.000042  -0.000004
    14  H   -0.000013   0.000010  -0.000006   0.000034   0.000570   0.000003
    15  C    0.352270  -0.065381  -0.001685  -0.003428   0.003678  -0.044867
    16  H   -0.045767  -0.001106   0.002553  -0.000507  -0.000023  -0.001135
    17  H   -0.044299  -0.002140  -0.000371   0.002847  -0.000072  -0.000548
    18  H   -0.040393   0.003695  -0.000079   0.000010  -0.000108  -0.002386
    19  C    4.918231   0.348402  -0.043826  -0.043925  -0.037059   0.698166
    20  C    0.348402   4.909200   0.398270   0.402448   0.406153  -0.043315
    21  H   -0.043826   0.398270   0.582537  -0.033095  -0.026282  -0.000841
    22  H   -0.043925   0.402448  -0.033095   0.586164  -0.030006   0.000448
    23  H   -0.037059   0.406153  -0.026282  -0.030006   0.568178  -0.002871
    24  C    0.698166  -0.043315  -0.000841   0.000448  -0.002871   4.961511
    25  H   -0.036139   0.003365  -0.000126  -0.000110   0.000059   0.402026
    26  C   -0.048266  -0.007532   0.000188   0.000286  -0.001943   0.339924
    27  H    0.000914   0.000169   0.000032  -0.000012   0.000031  -0.043350
    28  H    0.000822  -0.002065   0.000056  -0.000043  -0.001169  -0.043810
              25         26         27         28
     1  C    0.000004   0.326225  -0.045140  -0.040298
     2  H    0.000213  -0.039860   0.004292  -0.002146
     3  H    0.001003  -0.044602  -0.002605   0.004203
     4  C   -0.000155  -0.057355  -0.001852  -0.001437
     5  C    0.000010  -0.000188  -0.000392   0.000317
     6  H    0.000012   0.000810  -0.000187  -0.000009
     7  H   -0.000000  -0.000097  -0.000025  -0.000010
     8  H   -0.000002   0.000027   0.000093   0.000012
     9  C   -0.000002  -0.004367   0.000514   0.001216
    10  H   -0.000000  -0.000116   0.000004  -0.000044
    11  C    0.000000   0.000690  -0.000030   0.000070
    12  H    0.000000  -0.000050  -0.000000   0.000023
    13  H    0.000000   0.000091   0.000000  -0.000079
    14  H   -0.000001  -0.000212  -0.000008  -0.000251
    15  C   -0.006747   0.003153  -0.000102   0.000071
    16  H    0.000150  -0.000124   0.000012   0.000004
    17  H    0.000235  -0.000086  -0.000002  -0.000004
    18  H    0.002177   0.000146  -0.000011   0.000006
    19  C   -0.036139  -0.048266   0.000914   0.000822
    20  C    0.003365  -0.007532   0.000169  -0.002065
    21  H   -0.000126   0.000188   0.000032   0.000056
    22  H   -0.000110   0.000286  -0.000012  -0.000043
    23  H    0.000059  -0.001943   0.000031  -0.001169
    24  C    0.402026   0.339924  -0.043350  -0.043810
    25  H    0.558483  -0.041269  -0.003485   0.003230
    26  C   -0.041269   4.982290   0.413778   0.414884
    27  H   -0.003485   0.413778   0.588501  -0.029601
    28  H    0.003230   0.414884  -0.029601   0.571218
 Mulliken charges:
               1
     1  C   -0.234036
     2  H    0.126384
     3  H    0.115646
     4  C    0.015518
     5  C   -0.339903
     6  H    0.115140
     7  H    0.116746
     8  H    0.115829
     9  C   -0.155200
    10  H    0.116517
    11  C   -0.355595
    12  H    0.121549
    13  H    0.118243
    14  H    0.116945
    15  C   -0.341770
    16  H    0.116049
    17  H    0.115402
    18  H    0.118424
    19  C    0.022818
    20  C   -0.350806
    21  H    0.122700
    22  H    0.118896
    23  H    0.120966
    24  C   -0.160399
    25  H    0.117070
    26  C   -0.236426
    27  H    0.118463
    28  H    0.124833
 Sum of Mulliken charges =  -0.00000
 Mulliken charges with hydrogens summed into heavy atoms:
               1
     1  C    0.007994
     4  C    0.015518
     5  C    0.007811
     9  C   -0.038683
    11  C    0.001142
    15  C    0.008105
    19  C    0.022818
    20  C    0.011755
    24  C   -0.043329
    26  C    0.006870
 Electronic spatial extent (au):  <R**2>=           2423.6457
 Charge=             -0.0000 electrons
 Dipole moment (field-independent basis, Debye):
    X=              0.2949    Y=              0.1262    Z=             -0.0059  Tot=              0.3208
 Quadrupole moment (field-independent basis, Debye-Ang):
   XX=            -64.5126   YY=            -63.6030   ZZ=            -67.0543
   XY=              0.6107   XZ=              0.8629   YZ=             -0.4855
 Traceless Quadrupole moment (field-independent basis, Debye-Ang):
   XX=              0.5440   YY=              1.4536   ZZ=             -1.9977
   XY=              0.6107   XZ=              0.8629   YZ=             -0.4855
 Octapole moment (field-independent basis, Debye-Ang**2):
  XXX=              1.3606  YYY=             -2.7207  ZZZ=              0.1845  XYY=             -0.5696
  XXY=              4.5357  XXZ=             -2.6506  XZZ=              1.5755  YZZ=              1.2287
  YYZ=              1.3706  XYZ=             -0.7519
 Hexadecapole moment (field-independent basis, Debye-Ang**3):
 XXXX=          -2492.3002 YYYY=           -696.1217 ZZZZ=           -174.8211 XXXY=             -2.3439
 XXXZ=             11.9431 YYYX=             -9.3527 YYYZ=             -3.0510 ZZZX=             -0.8372
 ZZZY=             -0.0655 XXYY=           -530.4628 XXZZ=           -456.3143 YYZZ=           -139.1726
 XXYZ=             -4.2418 YYXZ=              3.1980 ZZXY=              4.6992
 N-N= 5.164357291943D+02 E-N=-1.937505246852D+03  KE= 3.886259839227D+02
 No NMR shielding tensors so no spin-rotation constants.
 Leave Link  601 at Fri Sep 17 13:39:20 2021, MaxMem=   524288000 cpu:               0.3 elap:               0.3
 (Enter /opt/gaussian/g16_legacy/l701.exe)
 ... and contract with generalized density number  2.
 Compute integral first derivatives.
 Leave Link  701 at Fri Sep 17 13:39:20 2021, MaxMem=   524288000 cpu:               0.3 elap:               0.3
 (Enter /opt/gaussian/g16_legacy/l702.exe)
 L702 exits ... SP integral derivatives will be done elsewhere.
 Leave Link  702 at Fri Sep 17 13:39:20 2021, MaxMem=   524288000 cpu:               0.1 elap:               0.1
 (Enter /opt/gaussian/g16_legacy/l703.exe)
 Integral derivatives from FoFJK, PRISM(SPDF).
 Compute integral first derivatives, UseDBF=F ICtDFT=           0.
 Calling FoFJK, ICntrl=  10002127 FMM=F ISym2X=0 I1Cent= 0 IOpClX= 0 NMat=1 NMatS=1 NMatT=0.
 FoFJK:  IHMeth= 1 ICntrl=10002127 DoSepK=F KAlg= 0 I1Cent=           0 FoldK=F
 IRaf=         0 NMat=       1 IRICut=       1 DoRegI=T DoRafI=F ISym2E= 0 IDoP0=0 IntGTp=1.
 FoFCou: FMM=F IPFlag=           0 FMFlag=      100000 FMFlg1=         800
         NFxFlg=           0 DoJE=F BraDBF=F KetDBF=F FulRan=T
         wScrn=  0.000000 ICntrl=  10002127 IOpCl=  0 I1Cent=           0 NGrid=           0
         NMat0=    1 NMatS0=      1 NMatT0=    0 NMatD0=    1 NMtDS0=    0 NMtDT0=    0
 Symmetry not used in FoFCou.
 Leave Link  703 at Fri Sep 17 13:39:53 2021, MaxMem=   524288000 cpu:              33.3 elap:              33.3
 (Enter /opt/gaussian/g16_legacy/l716.exe)
 Dipole        = 9.11423844D-02 6.68877324D-02-4.78729089D-03
 ***** Axes restored to original set *****
 -------------------------------------------------------------------
 Center     Atomic                   Forces (Hartrees/Bohr)
 Number     Number              X              Y              Z
 -------------------------------------------------------------------
      1        6          -0.005916106   -0.004123442    0.006237030
      2        1          -0.001355501    0.003280683   -0.003075996
      3        1          -0.001680669    0.003272695   -0.001035356
      4        6          -0.001284937   -0.006268535    0.000839365
      5        6          -0.003174373   -0.000190283    0.000045999
      6        1           0.001061891   -0.003207120    0.000170984
      7        1           0.003436584    0.001862750    0.001215699
      8        1          -0.000093645    0.002699361   -0.001998704
      9        6           0.000950030    0.002063762   -0.002972245
     10        1           0.002608259   -0.000214147   -0.002426770
     11        6           0.001309280    0.001606868    0.001624769
     12        1          -0.000010088    0.003357739    0.000743384
     13        1           0.001539898   -0.002458277    0.001872933
     14        1          -0.002009059   -0.002457926   -0.000934742
     15        6           0.001191821   -0.002350017   -0.002122400
     16        1           0.001065774   -0.001827136    0.002664601
     17        1           0.000237326    0.003163236   -0.001572651
     18        1          -0.003211077    0.001614035    0.002468931
     19        6           0.001740164   -0.004829115   -0.001536888
     20        6          -0.004444818   -0.000662397    0.000752213
     21        1           0.000837912   -0.001322399    0.002732729
     22        1           0.000274206    0.002341363   -0.002780445
     23        1           0.002465590    0.000259640   -0.002376445
     24        6          -0.003139033    0.002543210   -0.003333963
     25        1           0.001356066    0.001715478    0.002585306
     26        6           0.005505574    0.005384903   -0.001966787
     27        1          -0.000757610   -0.001821884    0.002768902
     28        1           0.001496540   -0.003433044    0.001410548
 -------------------------------------------------------------------
 Cartesian Forces:  Max     0.006268535 RMS     0.002572509
 Leave Link  716 at Fri Sep 17 13:39:54 2021, MaxMem=   524288000 cpu:               0.1 elap:               0.1
 (Enter /opt/gaussian/g16_legacy/l103.exe)

 GradGradGradGradGradGradGradGradGradGradGradGradGradGradGradGradGradGrad
 Berny optimization.
 FormGI is forming the generalized inverse of G from B-inverse, IUseBI=4.
 Internal  Forces:  Max     0.004891755 RMS     0.001916821
 Search for a local minimum.
 Step number   1 out of a maximum of  138
 All quantities printed in internal units (Hartrees-Bohrs-Radians)
 RMS Force = .19168D-02 SwitMx=.10000D-02 MixMth= 1
 Mixed Optimization -- RFO/linear search
 Second derivative matrix not updated -- first step.
 ITU=  0
     Eigenvalues ---    0.00344   0.00570   0.00671   0.00681   0.00693
     Eigenvalues ---    0.00714   0.00817   0.01219   0.01286   0.01569
     Eigenvalues ---    0.01641   0.02780   0.02784   0.04018   0.04138
     Eigenvalues ---    0.05349   0.05400   0.06978   0.07035   0.07090
     Eigenvalues ---    0.07092   0.07269   0.07301   0.07347   0.07504
     Eigenvalues ---    0.09277   0.09363   0.12767   0.12843   0.15999
     Eigenvalues ---    0.15999   0.16000   0.16000   0.16000   0.16000
     Eigenvalues ---    0.16000   0.16000   0.16000   0.16000   0.16000
     Eigenvalues ---    0.16000   0.16000   0.16000   0.21858   0.21866
     Eigenvalues ---    0.22000   0.22000   0.24994   0.24997   0.24998
     Eigenvalues ---    0.24999   0.29246   0.30871   0.31632   0.31711
     Eigenvalues ---    0.31802   0.31968   0.32784   0.33863   0.33971
     Eigenvalues ---    0.34059   0.34200   0.34224   0.34227   0.34234
     Eigenvalues ---    0.34243   0.34254   0.34255   0.34263   0.34264
     Eigenvalues ---    0.34293   0.34334   0.34553   0.34565   0.34808
     Eigenvalues ---    0.34851   0.55498   0.55566
 RFO step:  Lambda=-2.95783680D-03 EMin= 3.43622828D-03
 Linear search not attempted -- first point.
 Iteration  1 RMS(Cart)=  0.03969546 RMS(Int)=  0.00072289
 Iteration  2 RMS(Cart)=  0.00093383 RMS(Int)=  0.00016609
 Iteration  3 RMS(Cart)=  0.00000043 RMS(Int)=  0.00016609
 ITry= 1 IFail=0 DXMaxC= 1.69D-01 DCOld= 1.00D+10 DXMaxT= 3.00D-01 DXLimC= 3.00D+00 Rises=F
 Variable       Old X    -DE/DX   Delta X   Delta X   Delta X     New X
                                 (Linear)    (Quad)   (Total)
    R1        2.07230  -0.00333   0.00000  -0.00969  -0.00969   2.06261
    R2        2.07561  -0.00280   0.00000  -0.00819  -0.00819   2.06743
    R3        2.86260  -0.00353   0.00000  -0.01133  -0.01133   2.85127
    R4        2.89492   0.00176   0.00000   0.00597   0.00597   2.90089
    R5        2.84822  -0.00046   0.00000  -0.00143  -0.00143   2.84679
    R6        2.54692  -0.00396   0.00000  -0.00710  -0.00710   2.53982
    R7        2.06839  -0.00181   0.00000  -0.00523  -0.00523   2.06315
    R8        2.06953  -0.00370   0.00000  -0.01071  -0.01071   2.05882
    R9        2.06902  -0.00213   0.00000  -0.00617  -0.00617   2.06286
   R10        2.05918  -0.00220   0.00000  -0.00626  -0.00626   2.05291
   R11        2.82732   0.00304   0.00000   0.00920   0.00920   2.83653
   R12        2.06770  -0.00158   0.00000  -0.00457  -0.00457   2.06312
   R13        2.06889  -0.00259   0.00000  -0.00748  -0.00748   2.06141
   R14        2.06387  -0.00284   0.00000  -0.00815  -0.00815   2.05572
   R15        2.06937  -0.00207   0.00000  -0.00600  -0.00600   2.06337
   R16        2.06922  -0.00202   0.00000  -0.00585  -0.00585   2.06336
   R17        2.06949  -0.00397   0.00000  -0.01149  -0.01149   2.05800
   R18        2.84676  -0.00076   0.00000  -0.00236  -0.00236   2.84440
   R19        2.84203  -0.00050   0.00000  -0.00156  -0.00156   2.84048
   R20        2.54632  -0.00329   0.00000  -0.00589  -0.00589   2.54043
   R21        2.06887  -0.00187   0.00000  -0.00541  -0.00541   2.06346
   R22        2.06995  -0.00261   0.00000  -0.00758  -0.00758   2.06237
   R23        2.06408  -0.00281   0.00000  -0.00805  -0.00805   2.05602
   R24        2.05988  -0.00192   0.00000  -0.00546  -0.00546   2.05442
   R25        2.84507  -0.00151   0.00000  -0.00470  -0.00470   2.84037
   R26        2.07379  -0.00238   0.00000  -0.00695  -0.00695   2.06684
   R27        2.06904  -0.00273   0.00000  -0.00791  -0.00791   2.06113
    A1        1.82984   0.00207   0.00000   0.02251   0.02234   1.85218
    A2        1.93008   0.00043   0.00000   0.00930   0.00934   1.93942
    A3        1.91836  -0.00277   0.00000  -0.02019  -0.02023   1.89813
    A4        1.90264  -0.00069   0.00000  -0.00273  -0.00273   1.89991
    A5        1.92008  -0.00194   0.00000  -0.01724  -0.01727   1.90280
    A6        1.95847   0.00282   0.00000   0.00904   0.00908   1.96755
    A7        2.00829   0.00237   0.00000   0.00968   0.00912   2.01741
    A8        2.17075  -0.00489   0.00000  -0.01898  -0.01951   2.15124
    A9        2.10396   0.00253   0.00000   0.01039   0.00982   2.11378
   A10        1.92808   0.00227   0.00000   0.01213   0.01216   1.94023
   A11        1.95933  -0.00263   0.00000  -0.01316  -0.01312   1.94622
   A12        1.92482   0.00165   0.00000   0.00900   0.00902   1.93384
   A13        1.87700   0.00055   0.00000   0.00564   0.00568   1.88268
   A14        1.89488  -0.00307   0.00000  -0.02465  -0.02465   1.87023
   A15        1.87757   0.00110   0.00000   0.01020   0.01023   1.88780
   A16        2.06979  -0.00195   0.00000  -0.01345  -0.01347   2.05633
   A17        2.22507  -0.00187   0.00000  -0.00835  -0.00837   2.21670
   A18        1.98819   0.00382   0.00000   0.02197   0.02195   2.01014
   A19        1.91726   0.00394   0.00000   0.02324   0.02321   1.94046
   A20        1.90994   0.00239   0.00000   0.01566   0.01560   1.92554
   A21        1.98120  -0.00299   0.00000  -0.01840  -0.01831   1.96289
   A22        1.88720  -0.00310   0.00000  -0.01888  -0.01906   1.86814
   A23        1.89290  -0.00095   0.00000  -0.00763  -0.00753   1.88537
   A24        1.87272   0.00052   0.00000   0.00494   0.00501   1.87772
   A25        1.89475  -0.00312   0.00000  -0.02535  -0.02534   1.86941
   A26        1.87876   0.00092   0.00000   0.00795   0.00798   1.88675
   A27        1.92349   0.00174   0.00000   0.00875   0.00878   1.93226
   A28        1.87917   0.00092   0.00000   0.00937   0.00941   1.88858
   A29        1.92500   0.00219   0.00000   0.01229   0.01232   1.93732
   A30        1.96065  -0.00277   0.00000  -0.01386  -0.01382   1.94683
   A31        1.99468   0.00147   0.00000   0.00583   0.00581   2.00049
   A32        2.10576   0.00184   0.00000   0.00730   0.00727   2.11304
   A33        2.18269  -0.00330   0.00000  -0.01301  -0.01303   2.16966
   A34        1.92156   0.00230   0.00000   0.01171   0.01173   1.93330
   A35        1.92082   0.00000   0.00000  -0.00092  -0.00090   1.91992
   A36        1.97969  -0.00222   0.00000  -0.01018  -0.01016   1.96953
   A37        1.89072  -0.00240   0.00000  -0.02165  -0.02163   1.86909
   A38        1.88435   0.00024   0.00000   0.00333   0.00336   1.88771
   A39        1.86381   0.00200   0.00000   0.01691   0.01693   1.88073
   A40        2.06716  -0.00168   0.00000  -0.01184  -0.01224   2.05492
   A41        2.22707  -0.00224   0.00000  -0.00990  -0.01031   2.21676
   A42        1.98883   0.00394   0.00000   0.02253   0.02211   2.01094
   A43        1.94450   0.00330   0.00000   0.01365   0.01368   1.95817
   A44        1.92088  -0.00239   0.00000  -0.01475  -0.01494   1.90594
   A45        1.92602  -0.00263   0.00000  -0.02490  -0.02497   1.90106
   A46        1.88061   0.00061   0.00000   0.01705   0.01710   1.89771
   A47        1.94661  -0.00053   0.00000  -0.00245  -0.00240   1.94421
   A48        1.84189   0.00155   0.00000   0.01191   0.01165   1.85353
    D1       -2.64265  -0.00174   0.00000  -0.05211  -0.05190  -2.69455
    D2        0.47862  -0.00076   0.00000   0.01003   0.00980   0.48842
    D3       -0.63968   0.00059   0.00000  -0.02147  -0.02122  -0.66090
    D4        2.48159   0.00157   0.00000   0.04068   0.04048   2.52207
[...]
                 (A) (A) (A) (A) (A) (A) (A) (A) (A) (A) (A) (A)
                 (A) (A) (A) (A) (A) (A) (A) (A) (A) (A) (A) (A)
                 (A) (A) (A) (A) (A) (A) (A) (A) (A) (A) (A) (A)
                 (A) (A) (A) (A) (A) (A) (A) (A) (A) (A) (A) (A)
                 (A) (A) (A) (A) (A) (A) (A) (A) (A) (A) (A) (A)
                 (A) (A) (A) (A) (A) (A) (A) (A) (A) (A) (A) (A)
                 (A) (A) (A) (A) (A) (A) (A) (A) (A) (A) (A) (A)
                 (A) (A) (A) (A) (A) (A) (A) (A) (A) (A) (A) (A)
                 (A) (A) (A) (A) (A) (A) (A) (A) (A) (A) (A) (A)
                 (A) (A) (A) (A) (A) (A) (A) (A) (A) (A) (A) (A)
                 (A) (A) (A) (A) (A) (A) (A) (A) (A) (A) (A) (A)
                 (A) (A) (A) (A) (A) (A) (A) (A) (A) (A) (A) (A)
                 (A) (A) (A) (A) (A) (A) (A) (A) (A) (A) (A) (A)
                 (A) (A) (A) (A) (A) (A) (A) (A) (A)
 The electronic state is 1-A.
 Alpha  occ. eigenvalues --  -11.23020 -11.22460 -11.21868 -11.21730 -11.21712
 Alpha  occ. eigenvalues --  -11.21539 -11.21506 -11.21436 -11.21417 -11.21348
 Alpha  occ. eigenvalues --   -1.10821  -1.08492  -1.01823  -0.98143  -0.93838
 Alpha  occ. eigenvalues --   -0.91939  -0.86963  -0.82855  -0.70494  -0.69519
 Alpha  occ. eigenvalues --   -0.64988  -0.61512  -0.60591  -0.58878  -0.58366
 Alpha  occ. eigenvalues --   -0.56774  -0.55298  -0.54966  -0.53295  -0.52261
 Alpha  occ. eigenvalues --   -0.51859  -0.51173  -0.50832  -0.49581  -0.48519
 Alpha  occ. eigenvalues --   -0.46073  -0.44624  -0.33371  -0.31514
 Alpha virt. eigenvalues --    0.18142   0.19779   0.22152   0.24486   0.25192
 Alpha virt. eigenvalues --    0.27439   0.28535   0.28922   0.30318   0.30811
 Alpha virt. eigenvalues --    0.31477   0.32261   0.33202   0.33794   0.34383
 Alpha virt. eigenvalues --    0.35458   0.36114   0.36962   0.39185   0.40602
 Alpha virt. eigenvalues --    0.41328   0.42631   0.43685   0.44252   0.45395
 Alpha virt. eigenvalues --    0.51702   0.54378   0.61070   0.62576   0.70520
 Alpha virt. eigenvalues --    0.71073   0.72196   0.73768   0.76075   0.76177
 Alpha virt. eigenvalues --    0.76620   0.79010   0.79474   0.81070   0.82306
 Alpha virt. eigenvalues --    0.83713   0.85579   0.89117   0.91091   0.91343
 Alpha virt. eigenvalues --    0.92820   0.94745   0.97065   0.98284   0.98818
 Alpha virt. eigenvalues --    0.99710   1.00468   1.01911   1.03844   1.06577
 Alpha virt. eigenvalues --    1.08019   1.08221   1.09393   1.11664   1.12687
 Alpha virt. eigenvalues --    1.13026   1.13870   1.14856   1.15402   1.16045
 Alpha virt. eigenvalues --    1.16257   1.16619   1.18722   1.19116   1.20671
 Alpha virt. eigenvalues --    1.20953   1.23032   1.23885   1.25765   1.28153
 Alpha virt. eigenvalues --    1.34331   1.41722   1.42153   1.44890   1.46395
 Alpha virt. eigenvalues --    1.48456   1.54136   1.55360   1.57256   1.58165
 Alpha virt. eigenvalues --    1.61459   1.63397   1.66485   1.69046   1.69645
 Alpha virt. eigenvalues --    1.73917   1.82243   1.91111   1.93363   1.96231
 Alpha virt. eigenvalues --    1.98688   2.01467   2.02277   2.03941   2.08565
 Alpha virt. eigenvalues --    2.09706   2.10748   2.11744   2.13037   2.14903
 Alpha virt. eigenvalues --    2.15780   2.16940   2.19854   2.23666   2.28347
 Alpha virt. eigenvalues --    2.29590   2.30325   2.33235   2.35347   2.35688
 Alpha virt. eigenvalues --    2.35978   2.36098   2.38923   2.40264   2.41259
 Alpha virt. eigenvalues --    2.42195   2.43169   2.44154   2.45371   2.46084
 Alpha virt. eigenvalues --    2.47201   2.49167   2.49622   2.51174   2.54099
 Alpha virt. eigenvalues --    2.57315   2.58365   2.61888   2.63241   2.64107
 Alpha virt. eigenvalues --    2.67127   2.68175   2.71776   2.73352   2.73474
 Alpha virt. eigenvalues --    2.75815   2.77410   2.80796   2.82635   2.85354
 Alpha virt. eigenvalues --    2.87136   2.89441   2.92178   2.93739   2.94867
 Alpha virt. eigenvalues --    2.97869   2.99094   3.00960   3.02677   3.05807
 Alpha virt. eigenvalues --    3.06402   3.07703   3.09315   3.13762   3.17093
 Alpha virt. eigenvalues --    3.17589   3.19238   3.20046   3.21242   3.22334
 Alpha virt. eigenvalues --    3.24167   3.25050   3.26607   3.27420   3.37866
 Alpha virt. eigenvalues --    3.40355   3.46023   3.46902   3.56200   3.58183
 Alpha virt. eigenvalues --    3.59499   3.62406   3.67928   3.75494   3.78622
 Alpha virt. eigenvalues --    3.80005   3.81570   3.82569   3.83286   3.83898
 Alpha virt. eigenvalues --    3.84750   3.86481   3.87645   3.89820   3.91558
 Alpha virt. eigenvalues --    3.97645   4.59389   4.63170   4.74472   4.82572
 Alpha virt. eigenvalues --    4.88928   4.92582   4.93409   5.07840   5.10766
 Alpha virt. eigenvalues --    5.17766
          Condensed to atoms (all electrons):
               1          2          3          4          5          6
     1  C    5.004768   0.411714   0.414473   0.337355  -0.056085   0.000011
     2  H    0.411714   0.572983  -0.028296  -0.038988   0.003071  -0.000005
     3  H    0.414473  -0.028296   0.587507  -0.046308  -0.004587  -0.000489
     4  C    0.337355  -0.038988  -0.046308   4.952603   0.351934  -0.045679
     5  C   -0.056085   0.003071  -0.004587   0.351934   4.891804   0.400946
     6  H    0.000011  -0.000005  -0.000489  -0.045679   0.400946   0.596034
     7  H    0.003801  -0.000108   0.000106  -0.042765   0.407087  -0.027466
     8  H   -0.003698  -0.000034   0.002378  -0.041506   0.397495  -0.037541
     9  C   -0.047991  -0.001860   0.002531   0.697840  -0.046054  -0.001011
    10  H    0.003272   0.000031  -0.000118  -0.037842  -0.006525   0.000135
    11  C   -0.007749  -0.002811   0.000160  -0.050271   0.003364  -0.000101
    12  H    0.000152   0.000184   0.000017  -0.000627  -0.000106  -0.000004
    13  H    0.000310  -0.000067  -0.000013  -0.000247  -0.000095   0.000017
    14  H   -0.001745  -0.001657   0.000030  -0.000691   0.000109  -0.000003
    15  C   -0.000099  -0.000043  -0.000004   0.000001  -0.000000  -0.000000
    16  H   -0.000005   0.000002   0.000000   0.000000  -0.000000   0.000000
    17  H    0.000024  -0.000007  -0.000002  -0.000000   0.000000   0.000000
    18  H   -0.000003  -0.000002   0.000003   0.000000  -0.000000  -0.000000
    19  C   -0.004325   0.001388   0.000787   0.000041  -0.000003   0.000000
    20  C    0.000587   0.000200  -0.000015  -0.000018  -0.000000  -0.000000
    21  H   -0.000040   0.000022   0.000000   0.000001  -0.000000  -0.000000
    22  H    0.000130  -0.000135  -0.000002  -0.000005   0.000000   0.000000
    23  H   -0.000302  -0.000131  -0.000016  -0.000011  -0.000000   0.000000
    24  C   -0.061827  -0.000504  -0.000900   0.006443  -0.000149  -0.000111
    25  H    0.000175   0.000111   0.001011  -0.000152   0.000010   0.000015
    26  C    0.332330  -0.041801  -0.046074  -0.055544  -0.000661   0.000609
    27  H   -0.046841   0.004515  -0.001931  -0.002075  -0.000289   0.000197
    28  H   -0.042369  -0.003118   0.004477  -0.001813   0.000243  -0.000015
               7          8          9         10         11         12
     1  C    0.003801  -0.003698  -0.047991   0.003272  -0.007749   0.000152
     2  H   -0.000108  -0.000034  -0.001860   0.000031  -0.002811   0.000184
     3  H    0.000106   0.002378   0.002531  -0.000118   0.000160   0.000017
     4  C   -0.042765  -0.041506   0.697840  -0.037842  -0.050271  -0.000627
     5  C    0.407087   0.397495  -0.046054  -0.006525   0.003364  -0.000106
     6  H   -0.027466  -0.037541  -0.001011   0.000135  -0.000101  -0.000004
     7  H    0.568858  -0.026764  -0.002890   0.002385   0.000132  -0.000006
     8  H   -0.026764   0.591920  -0.000374   0.000216  -0.000105   0.000017
     9  C   -0.002890  -0.000374   4.938971   0.404494   0.340494  -0.041523
    10  H    0.002385   0.000216   0.404494   0.558671  -0.041278  -0.001122
    11  C    0.000132  -0.000105   0.340494  -0.041278   4.900974   0.401144
    12  H   -0.000006   0.000017  -0.041523  -0.001122   0.401144   0.583648
    13  H   -0.000006  -0.000004  -0.041805  -0.001264   0.402169  -0.035462
    14  H    0.000005   0.000002  -0.043903   0.003299   0.409079  -0.027132
    15  C    0.000000  -0.000000  -0.000000   0.000000  -0.000000   0.000000
    16  H    0.000000   0.000000   0.000000   0.000000   0.000000   0.000000
    17  H   -0.000000  -0.000000   0.000000  -0.000000  -0.000000  -0.000000
    18  H    0.000000  -0.000000  -0.000000   0.000000   0.000000  -0.000000
    19  C    0.000000   0.000000  -0.000001   0.000000   0.000013  -0.000000
    20  C   -0.000000   0.000000   0.000015  -0.000000  -0.000147   0.000004
    21  H    0.000000   0.000000   0.000000   0.000000   0.000003   0.000000
    22  H   -0.000000  -0.000000   0.000000  -0.000000  -0.000009  -0.000000
    23  H    0.000000  -0.000000  -0.000045   0.000000   0.000074  -0.000013
    24  C    0.000004   0.000004   0.000114   0.000002  -0.000031   0.000002
    25  H   -0.000000  -0.000001  -0.000002  -0.000000   0.000000   0.000000
    26  C   -0.000109   0.000086  -0.004911  -0.000113   0.000577  -0.000037
    27  H   -0.000050   0.000058   0.000760   0.000001  -0.000033  -0.000000
    28  H   -0.000005   0.000006   0.001406  -0.000046  -0.000082   0.000037
              13         14         15         16         17         18
     1  C    0.000310  -0.001745  -0.000099  -0.000005   0.000024  -0.000003
     2  H   -0.000067  -0.001657  -0.000043   0.000002  -0.000007  -0.000002
     3  H   -0.000013   0.000030  -0.000004   0.000000  -0.000002   0.000003
     4  C   -0.000247  -0.000691   0.000001   0.000000  -0.000000   0.000000
     5  C   -0.000095   0.000109  -0.000000  -0.000000   0.000000  -0.000000
     6  H    0.000017  -0.000003  -0.000000   0.000000   0.000000  -0.000000
     7  H   -0.000006   0.000005   0.000000   0.000000  -0.000000   0.000000
     8  H   -0.000004   0.000002  -0.000000   0.000000  -0.000000  -0.000000
     9  C   -0.041805  -0.043903  -0.000000   0.000000   0.000000  -0.000000
    10  H   -0.001264   0.003299   0.000000   0.000000  -0.000000   0.000000
    11  C    0.402169   0.409079  -0.000000   0.000000  -0.000000   0.000000
    12  H   -0.035462  -0.027132   0.000000   0.000000  -0.000000  -0.000000
    13  H    0.586720  -0.029956  -0.000000  -0.000000   0.000000  -0.000000
    14  H   -0.029956   0.577164   0.000000  -0.000000  -0.000000  -0.000000
    15  C   -0.000000   0.000000   4.900112   0.398811   0.398238   0.406218
    16  H   -0.000000  -0.000000   0.398811   0.593607  -0.037806  -0.026549
    17  H    0.000000  -0.000000   0.398238  -0.037806   0.594542  -0.026703
    18  H   -0.000000  -0.000000   0.406218  -0.026549  -0.026703   0.566018
    19  C    0.000001  -0.000026   0.353753  -0.044274  -0.043899  -0.041639
    20  C   -0.000015  -0.000000  -0.064931  -0.001201  -0.001975   0.003785
    21  H   -0.000000  -0.000008  -0.002223   0.002766  -0.000456  -0.000053
    22  H    0.000000   0.000079  -0.002632  -0.000476   0.002756  -0.000032
    23  H    0.000114   0.000412   0.003725  -0.000031  -0.000068  -0.000113
    24  C   -0.000009   0.000026  -0.044415  -0.001270  -0.000422  -0.002632
    25  H    0.000000  -0.000002  -0.006963   0.000187   0.000182   0.002335
    26  C    0.000163  -0.000737   0.003126  -0.000131  -0.000068   0.000148
    27  H   -0.000000  -0.000010  -0.000094   0.000009  -0.000002  -0.000010
    28  H   -0.000140  -0.000475   0.000051   0.000007  -0.000005   0.000007
              19         20         21         22         23         24
     1  C   -0.004325   0.000587  -0.000040   0.000130  -0.000302  -0.061827
     2  H    0.001388   0.000200   0.000022  -0.000135  -0.000131  -0.000504
     3  H    0.000787  -0.000015   0.000000  -0.000002  -0.000016  -0.000900
     4  C    0.000041  -0.000018   0.000001  -0.000005  -0.000011   0.006443
     5  C   -0.000003  -0.000000  -0.000000   0.000000  -0.000000  -0.000149
     6  H    0.000000  -0.000000  -0.000000   0.000000   0.000000  -0.000111
     7  H    0.000000  -0.000000   0.000000  -0.000000   0.000000   0.000004
     8  H    0.000000   0.000000   0.000000  -0.000000  -0.000000   0.000004
     9  C   -0.000001   0.000015   0.000000   0.000000  -0.000045   0.000114
    10  H    0.000000  -0.000000   0.000000  -0.000000   0.000000   0.000002
    11  C    0.000013  -0.000147   0.000003  -0.000009   0.000074  -0.000031
    12  H   -0.000000   0.000004   0.000000  -0.000000  -0.000013   0.000002
    13  H    0.000001  -0.000015  -0.000000   0.000000   0.000114  -0.000009
    14  H   -0.000026  -0.000000  -0.000008   0.000079   0.000412   0.000026
    15  C    0.353753  -0.064931  -0.002223  -0.002632   0.003725  -0.044415
    16  H   -0.044274  -0.001201   0.002766  -0.000476  -0.000031  -0.001270
    17  H   -0.043899  -0.001975  -0.000456   0.002756  -0.000068  -0.000422
    18  H   -0.041639   0.003785  -0.000053  -0.000032  -0.000113  -0.002632
    19  C    4.914192   0.350332  -0.043537  -0.043385  -0.037848   0.697734
    20  C    0.350332   4.907254   0.399852   0.401208   0.407154  -0.044248
    21  H   -0.043537   0.399852   0.584669  -0.035759  -0.026060  -0.000365
    22  H   -0.043385   0.401208  -0.035759   0.587442  -0.028659  -0.000031
    23  H   -0.037848   0.407154  -0.026060  -0.028659   0.568221  -0.003253
    24  C    0.697734  -0.044248  -0.000365  -0.000031  -0.003253   4.962746
    25  H   -0.038449   0.003528  -0.000121  -0.000121   0.000061   0.403391
    26  C   -0.050100  -0.008144   0.000117   0.000367  -0.002069   0.338699
    27  H    0.001583   0.000195   0.000021  -0.000014   0.000058  -0.041395
    28  H    0.000438  -0.002693   0.000113  -0.000076  -0.001675  -0.044060
              25         26         27         28
     1  C    0.000175   0.332330  -0.046841  -0.042369
     2  H    0.000111  -0.041801   0.004515  -0.003118
     3  H    0.001011  -0.046074  -0.001931   0.004477
     4  C   -0.000152  -0.055544  -0.002075  -0.001813
     5  C    0.000010  -0.000661  -0.000289   0.000243
     6  H    0.000015   0.000609   0.000197  -0.000015
     7  H   -0.000000  -0.000109  -0.000050  -0.000005
     8  H   -0.000001   0.000086   0.000058   0.000006
     9  C   -0.000002  -0.004911   0.000760   0.001406
    10  H   -0.000000  -0.000113   0.000001  -0.000046
    11  C    0.000000   0.000577  -0.000033  -0.000082
    12  H    0.000000  -0.000037  -0.000000   0.000037
    13  H    0.000000   0.000163  -0.000000  -0.000140
    14  H   -0.000002  -0.000737  -0.000010  -0.000475
    15  C   -0.006963   0.003126  -0.000094   0.000051
    16  H    0.000187  -0.000131   0.000009   0.000007
    17  H    0.000182  -0.000068  -0.000002  -0.000005
    18  H    0.002335   0.000148  -0.000010   0.000007
    19  C   -0.038449  -0.050100   0.001583   0.000438
    20  C    0.003528  -0.008144   0.000195  -0.002693
    21  H   -0.000121   0.000117   0.000021   0.000113
    22  H   -0.000121   0.000367  -0.000014  -0.000076
    23  H    0.000061  -0.002069   0.000058  -0.001675
    24  C    0.403391   0.338699  -0.041395  -0.044060
    25  H    0.557389  -0.039114  -0.003424   0.003152
    26  C   -0.039114   4.979543   0.413482   0.415850
    27  H   -0.003424   0.413482   0.585267  -0.028362
    28  H    0.003152   0.415850  -0.028362   0.575347
 Mulliken charges:
               1
     1  C   -0.236021
     2  H    0.125346
     3  H    0.115272
     4  C    0.018322
     5  C   -0.341505
     6  H    0.114461
     7  H    0.117792
     8  H    0.117845
     9  C   -0.154256
    10  H    0.115801
    11  C   -0.355567
    12  H    0.120829
    13  H    0.119588
    14  H    0.116140
    15  C   -0.342631
    16  H    0.116356
    17  H    0.115672
    18  H    0.119222
    19  C    0.027221
    20  C   -0.350727
    21  H    0.121058
    22  H    0.119352
    23  H    0.120474
    24  C   -0.163542
    25  H    0.116803
    26  C   -0.235486
    27  H    0.118380
    28  H    0.123802
 Sum of Mulliken charges =  -0.00000
 Mulliken charges with hydrogens summed into heavy atoms:
               1
     1  C    0.004596
     4  C    0.018322
     5  C    0.008593
     9  C   -0.038454
    11  C    0.000991
    15  C    0.008618
    19  C    0.027221
    20  C    0.010156
    24  C   -0.046739
    26  C    0.006696
 Electronic spatial extent (au):  <R**2>=           2384.0088
 Charge=             -0.0000 electrons
 Dipole moment (field-independent basis, Debye):
    X=              0.3027    Y=              0.1253    Z=              0.0460  Tot=              0.3308
 Quadrupole moment (field-independent basis, Debye-Ang):
   XX=            -64.3023   YY=            -63.2901   ZZ=            -67.3956
   XY=              0.7521   XZ=              1.2367   YZ=             -0.3487
 Traceless Quadrupole moment (field-independent basis, Debye-Ang):
   XX=              0.6937   YY=              1.7059   ZZ=             -2.3996
   XY=              0.7521   XZ=              1.2367   YZ=             -0.3487
 Octapole moment (field-independent basis, Debye-Ang**2):
  XXX=              2.6683  YYY=             -2.9989  ZZZ=              0.8999  XYY=             -0.6416
  XXY=              4.0909  XXZ=             -2.0918  XZZ=              1.2120  YZZ=              1.4955
  YYZ=              0.6111  XYZ=             -0.3641
 Hexadecapole moment (field-independent basis, Debye-Ang**3):
 XXXX=          -2435.7208 YYYY=           -693.4919 ZZZZ=           -166.6417 XXXY=              2.3047
 XXXZ=             14.7515 YYYX=            -11.0526 YYYZ=             -1.4215 ZZZX=              2.8118
 ZZZY=             -0.6410 XXYY=           -520.1253 XXZZ=           -449.2346 YYZZ=           -138.3649
 XXYZ=             -4.2785 YYXZ=              0.5785 ZZXY=              5.9188
 N-N= 5.190878720113D+02 E-N=-1.942888483013D+03  KE= 3.887471635959D+02
 No NMR shielding tensors so no spin-rotation constants.
 Leave Link  601 at Fri Sep 17 14:59:01 2021, MaxMem=   524288000 cpu:               0.3 elap:               0.3
 (Enter /opt/gaussian/g16_legacy/l9999.exe)
 1\1\GINC-TRUENO90\FOpt\RMP2-FC\6-31G(d,p)\C10H18\JRAMOS\17-Sep-2021\0\
 \#p opt mp2/6-31g(d,p)\\Conformer number 1639. Energy MM = 23.242 kcal
 /mol\\0,1\C,-0.2710435883,-1.1088584982,-0.0373825118\H,0.1131263812,-
 1.0649904937,0.9829138831\H,0.3184939543,-1.8723495235,-0.5531484829\C
 ,-1.7274671824,-1.4990004915,-0.0640190913\C,-2.1716698301,-2.26376997
 6,-1.2810904782\H,-1.9295669536,-1.7185112068,-2.1960528966\H,-3.24567
 20235,-2.4452003464,-1.2700700924\H,-1.6615469719,-3.2275869736,-1.341
 5592729\C,-2.6057212143,-1.1534741149,0.8957896431\H,-3.6396690909,-1.
 4618265769,0.7676736755\C,-2.3165939718,-0.3761905631,2.1440595943\H,-
 2.5667706669,-0.9576611094,3.0334780177\H,-2.9193004741,0.5333077876,2
 .1796069524\H,-1.2715859833,-0.0835766216,2.2170010016\C,3.6145310513,
 1.5629091997,-0.0974162886\H,3.8401889528,2.6263038897,-0.2049561425\H
 ,4.1705559908,1.2079043922,0.7732248995\H,3.9900607891,1.0435798221,-0
 .9777758411\C,2.137689394,1.3453394317,0.0843840452\C,1.543003589,2.03
 52523996,1.2807256126\H,1.6788752473,3.1165500234,1.2064872349\H,2.053
 4805683,1.7150513529,2.1916152595\H,0.481789467,1.8336397959,1.4028747
 505\C,1.4383616905,0.5878649676,-0.7816062691\H,1.9876494614,0.1228686
 582,-1.5964032984\C,-0.022276742,0.2538485106,-0.7119388961\H,-0.43706
 05517,0.2310262151,-1.72321306\H,-0.5817612922,1.0175500493,-0.1703019
 48\\Version=EM64L-G16RevA.03\State=1-A\HF=-389.1567535\MP2=-390.573864
 6\RMSD=5.117e-09\RMSF=3.173e-06\Dipole=0.0692378,0.0681628,0.0638388\P
 G=C01 [X(C10H18)]\\@


      SCIENCE SANS CONSCIENCE N'EST QUE RUINE DE L'AME.

                                                  -- RABELAIS
 Job cpu time:       0 days  1 hours 26 minutes  6.1 seconds.
 Elapsed time:       0 days  1 hours 26 minutes 22.8 seconds.
 File lengths (MBytes):  RWF=     32 Int=      0 D2E=      0 Chk=      7 Scr=      1
 Normal termination of Gaussian 16 at Fri Sep 17 14:59:01 2021.
