 Entering Gaussian System, Link 0=/opt/gaussian/g16_legacy/g16
 Input=01-IsoP_2542_gaussian.com
 Output=01-IsoP_2542_gaussian.log
 Initial command:
 /opt/gaussian/g16_legacy/l1.exe "/scratch-local/jramos/2661359/Gau-13287.inp" -scrdir="/scratch-local/jramos/2661359/"
 Entering Link 1 = /opt/gaussian/g16_legacy/l1.exe PID=     13288.
  
 Copyright (c) 1988,1990,1992,1993,1995,1998,2003,2009,2016,
            Gaussian, Inc.  All Rights Reserved.
  
 This is part of the Gaussian(R) 16 program.  It is based on
 the Gaussian(R) 09 system (copyright 2009, Gaussian, Inc.),
 the Gaussian(R) 03 system (copyright 2003, Gaussian, Inc.),
 the Gaussian(R) 98 system (copyright 1998, Gaussian, Inc.),
 the Gaussian(R) 94 system (copyright 1995, Gaussian, Inc.),
 the Gaussian 92(TM) system (copyright 1992, Gaussian, Inc.),
 the Gaussian 90(TM) system (copyright 1990, Gaussian, Inc.),
 the Gaussian 88(TM) system (copyright 1988, Gaussian, Inc.),
 the Gaussian 86(TM) system (copyright 1986, Carnegie Mellon
 University), and the Gaussian 82(TM) system (copyright 1983,
 Carnegie Mellon University). Gaussian is a federally registered
 trademark of Gaussian, Inc.
  
 This software contains proprietary and confidential information,
 including trade secrets, belonging to Gaussian, Inc.
  
 This software is provided under written license and may be
 used, copied, transmitted, or stored only in accord with that
 written license.
  
 The following legend is applicable only to US Government
 contracts under FAR:
  
                    RESTRICTED RIGHTS LEGEND
  
 Use, reproduction and disclosure by the US Government is
 subject to restrictions as set forth in subparagraphs (a)
 and (c) of the Commercial Computer Software - Restricted
 Rights clause in FAR 52.227-19.
  
 Gaussian, Inc.
 340 Quinnipiac St., Bldg. 40, Wallingford CT 06492
  
  
 ---------------------------------------------------------------
 Warning -- This program may not be used in any manner that
 competes with the business of Gaussian, Inc. or will provide
 assistance to any competitor of Gaussian, Inc.  The licensee
 of this program is prohibited from giving any competitor of
 Gaussian, Inc. access to this program.  By using this program,
 the user acknowledges that Gaussian, Inc. is engaged in the
 business of creating and licensing software in the field of
 computational chemistry and represents and warrants to the
 licensee that it is not a competitor of Gaussian, Inc. and that
 it will not use this program in any manner prohibited above.
 ---------------------------------------------------------------
  

 Cite this work as:
 Gaussian 16, Revision A.03,
 M. J. Frisch, G. W. Trucks, H. B. Schlegel, G. E. Scuseria, 
 M. A. Robb, J. R. Cheeseman, G. Scalmani, V. Barone, 
 G. A. Petersson, H. Nakatsuji, X. Li, M. Caricato, A. V. Marenich, 
 J. Bloino, B. G. Janesko, R. Gomperts, B. Mennucci, H. P. Hratchian, 
 J. V. Ortiz, A. F. Izmaylov, J. L. Sonnenberg, D. Williams-Young, 
 F. Ding, F. Lipparini, F. Egidi, J. Goings, B. Peng, A. Petrone, 
 T. Henderson, D. Ranasinghe, V. G. Zakrzewski, J. Gao, N. Rega, 
 G. Zheng, W. Liang, M. Hada, M. Ehara, K. Toyota, R. Fukuda, 
 J. Hasegawa, M. Ishida, T. Nakajima, Y. Honda, O. Kitao, H. Nakai, 
 T. Vreven, K. Throssell, J. A. Montgomery, Jr., J. E. Peralta, 
 F. Ogliaro, M. J. Bearpark, J. J. Heyd, E. N. Brothers, K. N. Kudin, 
 V. N. Staroverov, T. A. Keith, R. Kobayashi, J. Normand, 
 K. Raghavachari, A. P. Rendell, J. C. Burant, S. S. Iyengar, 
 J. Tomasi, M. Cossi, J. M. Millam, M. Klene, C. Adamo, R. Cammi, 
 J. W. Ochterski, R. L. Martin, K. Morokuma, O. Farkas, 
 J. B. Foresman, and D. J. Fox, Gaussian, Inc., Wallingford CT, 2016.
 
 ******************************************
 Gaussian 16:  EM64L-G16RevA.03 25-Dec-2016
                17-Sep-2021 
 ******************************************
 %chk=01-IsoP_2542_gaussian.chk
 %nproc=1
 Will use up to    1 processors via shared memory.
 %mem=4000Mb
 ---------------------
 #p opt mp2/6-31g(d,p)
 ---------------------
 1/18=20,19=15,38=1/1,3;
 2/9=110,12=2,17=6,18=5,40=1/2;
 3/5=1,6=6,7=101,11=9,25=1,30=1,71=1/1,2,3;
 4//1;
 5/5=2,38=5/2;
 8/6=4,10=2/1;
 9/15=2,16=-3/6;
 10/5=1/2;
 6/7=2,8=2,9=2,10=2/1;
 7/12=2/1,2,3,16;
 1/18=20,19=15/3(2);
 2/9=110/2;
 99//99;
 2/9=110/2;
 3/5=1,6=6,7=101,11=9,25=1,30=1,71=1/1,2,3;
 4/5=5,16=3,69=1/1;
 5/5=2,38=5/2;
 8/6=4,10=2/1;
 9/15=2,16=-3/6;
 10/5=1/2;
 7/12=2/1,2,3,16;
 1/18=20,19=15/3(-8);
 2/9=110/2;
 6/7=2,8=2,9=2,10=2/1;
 99//99;
 Leave Link    1 at Fri Sep 17 14:15:42 2021, MaxMem=   524288000 cpu:               0.0 elap:               0.1
 (Enter /opt/gaussian/g16_legacy/l101.exe)
 --------------------------------------------------
 Conformer number 2542. Energy MM = 23.242 kcal/mol
 --------------------------------------------------
 Symbolic Z-matrix:
 Charge =  0 Multiplicity = 1
 C                     0.3965   -0.9415    0.7229 
 H                    -0.1343   -0.2771    1.4152 
 H                    -0.0133   -1.9409    0.922 
 C                     1.8812   -0.948     1.0238 
 C                     2.5997   -2.2236    0.6656 
 H                     3.6662   -2.1818    0.911 
 H                     2.1677   -3.0687    1.2115 
 H                     2.5155   -2.422    -0.4075 
 C                     2.5472    0.0774    1.5908 
 H                     3.613    -0.0375    1.7862 
 C                     1.9992    1.4132    1.9831 
 H                     0.9739    1.5798    1.6457 
 H                     2.0276    1.5213    3.0715 
 H                     2.6182    2.2035    1.546 
 C                    -3.6633    0.3292   -1.4236 
 H                    -3.92      0.8729   -2.3387 
 H                    -4.2869    0.7072   -0.6069 
 H                    -3.9217   -0.7235   -1.5794 
 C                    -2.2046    0.5184   -1.0979 
 C                    -1.7993    1.9507   -0.8838 
 H                    -2.4526    2.4187   -0.1394 
 H                    -1.8881    2.5108   -1.8203 
 H                    -0.7756    2.0627   -0.5199 
 C                    -1.3782   -0.5418   -1.0057 
 H                    -1.792    -1.5379   -1.1638 
 C                     0.1006   -0.5321   -0.7234 
 H                     0.5449    0.4446   -0.9413 
 H                     0.5785   -1.234    -1.4185 
 
 ITRead=  0  0  0  0  0  0  0  0  0  0  0  0  0  0  0  0  0  0  0  0
 ITRead=  0  0  0  0  0  0  0  0
 MicOpt= -1 -1 -1 -1 -1 -1 -1 -1 -1 -1 -1 -1 -1 -1 -1 -1 -1 -1 -1 -1
 MicOpt= -1 -1 -1 -1 -1 -1 -1 -1
 NAtoms=     28 NQM=       28 NQMF=       0 NMMI=      0 NMMIF=      0
                NMic=       0 NMicF=      0.
                    Isotopes and Nuclear Properties:
 (Nuclear quadrupole moments (NQMom) in fm**2, nuclear magnetic moments (NMagM)
  in nuclear magnetons)

  Atom         1           2           3           4           5           6           7           8           9          10
 IAtWgt=          12           1           1          12          12           1           1           1          12           1
 AtmWgt=  12.0000000   1.0078250   1.0078250  12.0000000  12.0000000   1.0078250   1.0078250   1.0078250  12.0000000   1.0078250
 NucSpn=           0           1           1           0           0           1           1           1           0           1
 AtZEff=  -0.0000000  -0.0000000  -0.0000000  -0.0000000  -0.0000000  -0.0000000  -0.0000000  -0.0000000  -0.0000000  -0.0000000
 NQMom=    0.0000000   0.0000000   0.0000000   0.0000000   0.0000000   0.0000000   0.0000000   0.0000000   0.0000000   0.0000000
 NMagM=    0.0000000   2.7928460   2.7928460   0.0000000   0.0000000   2.7928460   2.7928460   2.7928460   0.0000000   2.7928460
 AtZNuc=   6.0000000   1.0000000   1.0000000   6.0000000   6.0000000   1.0000000   1.0000000   1.0000000   6.0000000   1.0000000

  Atom        11          12          13          14          15          16          17          18          19          20
 IAtWgt=          12           1           1           1          12           1           1           1          12          12
 AtmWgt=  12.0000000   1.0078250   1.0078250   1.0078250  12.0000000   1.0078250   1.0078250   1.0078250  12.0000000  12.0000000
 NucSpn=           0           1           1           1           0           1           1           1           0           0
 AtZEff=  -0.0000000  -0.0000000  -0.0000000  -0.0000000  -0.0000000  -0.0000000  -0.0000000  -0.0000000  -0.0000000  -0.0000000
 NQMom=    0.0000000   0.0000000   0.0000000   0.0000000   0.0000000   0.0000000   0.0000000   0.0000000   0.0000000   0.0000000
 NMagM=    0.0000000   2.7928460   2.7928460   2.7928460   0.0000000   2.7928460   2.7928460   2.7928460   0.0000000   0.0000000
 AtZNuc=   6.0000000   1.0000000   1.0000000   1.0000000   6.0000000   1.0000000   1.0000000   1.0000000   6.0000000   6.0000000

  Atom        21          22          23          24          25          26          27          28
 IAtWgt=           1           1           1          12           1          12           1           1
 AtmWgt=   1.0078250   1.0078250   1.0078250  12.0000000   1.0078250  12.0000000   1.0078250   1.0078250
 NucSpn=           1           1           1           0           1           0           1           1
 AtZEff=  -0.0000000  -0.0000000  -0.0000000  -0.0000000  -0.0000000  -0.0000000  -0.0000000  -0.0000000
 NQMom=    0.0000000   0.0000000   0.0000000   0.0000000   0.0000000   0.0000000   0.0000000   0.0000000
 NMagM=    2.7928460   2.7928460   2.7928460   0.0000000   2.7928460   0.0000000   2.7928460   2.7928460
 AtZNuc=   1.0000000   1.0000000   1.0000000   6.0000000   1.0000000   6.0000000   1.0000000   1.0000000
 Leave Link  101 at Fri Sep 17 14:15:42 2021, MaxMem=   524288000 cpu:               0.1 elap:               0.2
 (Enter /opt/gaussian/g16_legacy/l103.exe)

 GradGradGradGradGradGradGradGradGradGradGradGradGradGradGradGradGradGrad
 Berny optimization.
 Initialization pass.
                           ----------------------------
                           !    Initial Parameters    !
                           ! (Angstroms and Degrees)  !
 --------------------------                            --------------------------
 ! Name  Definition              Value          Derivative Info.                !
 --------------------------------------------------------------------------------
 ! R1    R(1,2)                  1.0966         estimate D2E/DX2                !
 ! R2    R(1,3)                  1.0984         estimate D2E/DX2                !
 ! R3    R(1,4)                  1.5149         estimate D2E/DX2                !
 ! R4    R(1,26)                 1.532          estimate D2E/DX2                !
 ! R5    R(4,5)                  1.5072         estimate D2E/DX2                !
 ! R6    R(4,9)                  1.3478         estimate D2E/DX2                !
 ! R7    R(5,6)                  1.0952         estimate D2E/DX2                !
 ! R8    R(5,7)                  1.0949         estimate D2E/DX2                !
 ! R9    R(5,8)                  1.0945         estimate D2E/DX2                !
 ! R10   R(9,10)                 1.0896         estimate D2E/DX2                !
 ! R11   R(9,11)                 1.4962         estimate D2E/DX2                !
 ! R12   R(11,12)                1.0922         estimate D2E/DX2                !
 ! R13   R(11,13)                1.0941         estimate D2E/DX2                !
 ! R14   R(11,14)                1.0949         estimate D2E/DX2                !
 ! R15   R(15,16)                1.0949         estimate D2E/DX2                !
 ! R16   R(15,17)                1.0949         estimate D2E/DX2                !
 ! R17   R(15,18)                1.0951         estimate D2E/DX2                !
 ! R18   R(15,19)                1.5065         estimate D2E/DX2                !
 ! R19   R(19,20)                1.5039         estimate D2E/DX2                !
 ! R20   R(19,24)                1.3474         estimate D2E/DX2                !
 ! R21   R(20,21)                1.0954         estimate D2E/DX2                !
 ! R22   R(20,22)                1.0948         estimate D2E/DX2                !
 ! R23   R(20,23)                1.0922         estimate D2E/DX2                !
 ! R24   R(24,25)                1.0902         estimate D2E/DX2                !
 ! R25   R(24,26)                1.5055         estimate D2E/DX2                !
 ! R26   R(26,27)                1.0949         estimate D2E/DX2                !
 ! R27   R(26,28)                1.0974         estimate D2E/DX2                !
 ! A1    A(2,1,3)              104.8482         estimate D2E/DX2                !
 ! A2    A(2,1,4)              110.5856         estimate D2E/DX2                !
 ! A3    A(2,1,26)             109.9144         estimate D2E/DX2                !
 ! A4    A(3,1,4)              109.0115         estimate D2E/DX2                !
 ! A5    A(3,1,26)             110.0128         estimate D2E/DX2                !
 ! A6    A(4,1,26)             112.2077         estimate D2E/DX2                !
 ! A7    A(1,4,5)              115.064          estimate D2E/DX2                !
 ! A8    A(1,4,9)              124.3742         estimate D2E/DX2                !
 ! A9    A(5,4,9)              120.5515         estimate D2E/DX2                !
 ! A10   A(4,5,6)              112.2515         estimate D2E/DX2                !
 ! A11   A(4,5,7)              110.283          estimate D2E/DX2                !
 ! A12   A(4,5,8)              110.4715         estimate D2E/DX2                !
 ! A13   A(6,5,7)              107.5757         estimate D2E/DX2                !
 ! A14   A(6,5,8)              107.549          estimate D2E/DX2                !
 ! A15   A(7,5,8)              108.5757         estimate D2E/DX2                !
 ! A16   A(4,9,10)             118.591          estimate D2E/DX2                !
 ! A17   A(4,9,11)             127.4864         estimate D2E/DX2                !
 ! A18   A(10,9,11)            113.9148         estimate D2E/DX2                !
 ! A19   A(9,11,12)            113.5174         estimate D2E/DX2                !
 ! A20   A(9,11,13)            109.8483         estimate D2E/DX2                !
 ! A21   A(9,11,14)            109.432          estimate D2E/DX2                !
 ! A22   A(12,11,13)           108.4578         estimate D2E/DX2                !
 ! A23   A(12,11,14)           107.2958         estimate D2E/DX2                !
 ! A24   A(13,11,14)           108.1279         estimate D2E/DX2                !
 ! A25   A(16,15,17)           108.569          estimate D2E/DX2                !
 ! A26   A(16,15,18)           107.6445         estimate D2E/DX2                !
 ! A27   A(16,15,19)           110.201          estimate D2E/DX2                !
 ! A28   A(17,15,18)           107.6745         estimate D2E/DX2                !
 ! A29   A(17,15,19)           110.2949         estimate D2E/DX2                !
 ! A30   A(18,15,19)           112.3306         estimate D2E/DX2                !
 ! A31   A(15,19,20)           114.2887         estimate D2E/DX2                !
 ! A32   A(15,19,24)           120.6526         estimate D2E/DX2                !
 ! A33   A(20,19,24)           125.0558         estimate D2E/DX2                !
 ! A34   A(19,20,21)           110.0547         estimate D2E/DX2                !
 ! A35   A(19,20,22)           110.0969         estimate D2E/DX2                !
 ! A36   A(19,20,23)           113.4344         estimate D2E/DX2                !
 ! A37   A(21,20,22)           108.3212         estimate D2E/DX2                !
 ! A38   A(21,20,23)           106.7836         estimate D2E/DX2                !
 ! A39   A(22,20,23)           107.9723         estimate D2E/DX2                !
 ! A40   A(19,24,25)           118.4397         estimate D2E/DX2                !
 ! A41   A(19,24,26)           127.6042         estimate D2E/DX2                !
 ! A42   A(25,24,26)           113.9487         estimate D2E/DX2                !
 ! A43   A(1,26,24)            111.4088         estimate D2E/DX2                !
 ! A44   A(1,26,27)            110.3583         estimate D2E/DX2                !
 ! A45   A(1,26,28)            110.057          estimate D2E/DX2                !
 ! A46   A(24,26,27)           111.5315         estimate D2E/DX2                !
 ! A47   A(24,26,28)           107.7503         estimate D2E/DX2                !
 ! A48   A(27,26,28)           105.5327         estimate D2E/DX2                !
 ! D1    D(2,1,4,5)            151.4141         estimate D2E/DX2                !
 ! D2    D(2,1,4,9)            -27.4157         estimate D2E/DX2                !
 ! D3    D(3,1,4,5)             36.6464         estimate D2E/DX2                !
 ! D4    D(3,1,4,9)           -142.1834         estimate D2E/DX2                !
 ! D5    D(26,1,4,5)           -85.47           estimate D2E/DX2                !
 ! D6    D(26,1,4,9)            95.7003         estimate D2E/DX2                !
 ! D7    D(2,1,26,24)          -56.9399         estimate D2E/DX2                !
 ! D8    D(2,1,26,27)           67.5294         estimate D2E/DX2                !
 ! D9    D(2,1,26,28)         -176.3956         estimate D2E/DX2                !
 ! D10   D(3,1,26,24)           58.0226         estimate D2E/DX2                !
 ! D11   D(3,1,26,27)         -177.5082         estimate D2E/DX2                !
 ! D12   D(3,1,26,28)          -61.4332         estimate D2E/DX2                !
 ! D13   D(4,1,26,24)          179.5673         estimate D2E/DX2                !
 ! D14   D(4,1,26,27)          -55.9635         estimate D2E/DX2                !
 ! D15   D(4,1,26,28)           60.1115         estimate D2E/DX2                !
 ! D16   D(1,4,5,6)           -179.4394         estimate D2E/DX2                !
 ! D17   D(1,4,5,7)            -59.5031         estimate D2E/DX2                !
 ! D18   D(1,4,5,8)             60.5286         estimate D2E/DX2                !
 ! D19   D(9,4,5,6)             -0.561          estimate D2E/DX2                !
 ! D20   D(9,4,5,7)            119.3754         estimate D2E/DX2                !
 ! D21   D(9,4,5,8)           -120.5929         estimate D2E/DX2                !
 ! D22   D(1,4,9,10)           178.605          estimate D2E/DX2                !
 ! D23   D(1,4,9,11)            -2.4858         estimate D2E/DX2                !
 ! D24   D(5,4,9,10)            -0.1641         estimate D2E/DX2                !
 ! D25   D(5,4,9,11)           178.7451         estimate D2E/DX2                !
 ! D26   D(4,9,11,12)           -7.9248         estimate D2E/DX2                !
 ! D27   D(4,9,11,13)          113.6884         estimate D2E/DX2                !
 ! D28   D(4,9,11,14)         -127.7492         estimate D2E/DX2                !
 ! D29   D(10,9,11,12)         171.0274         estimate D2E/DX2                !
 ! D30   D(10,9,11,13)         -67.3594         estimate D2E/DX2                !
 ! D31   D(10,9,11,14)          51.2031         estimate D2E/DX2                !
 ! D32   D(16,15,19,20)         59.6054         estimate D2E/DX2                !
 ! D33   D(16,15,19,24)       -120.9853         estimate D2E/DX2                !
 ! D34   D(17,15,19,20)        -60.2524         estimate D2E/DX2                !
 ! D35   D(17,15,19,24)        119.1569         estimate D2E/DX2                !
 ! D36   D(18,15,19,20)        179.6252         estimate D2E/DX2                !
 ! D37   D(18,15,19,24)         -0.9656         estimate D2E/DX2                !
 ! D38   D(15,19,20,21)         52.7775         estimate D2E/DX2                !
 ! D39   D(15,19,20,22)        -66.5564         estimate D2E/DX2                !
 ! D40   D(15,19,20,23)        172.3328         estimate D2E/DX2                !
 ! D41   D(24,19,20,21)       -126.6017         estimate D2E/DX2                !
 ! D42   D(24,19,20,22)        114.0644         estimate D2E/DX2                !
 ! D43   D(24,19,20,23)         -7.0464         estimate D2E/DX2                !
 ! D44   D(15,19,24,25)         -0.5142         estimate D2E/DX2                !
 ! D45   D(15,19,24,26)        178.4312         estimate D2E/DX2                !
 ! D46   D(20,19,24,25)        178.828          estimate D2E/DX2                !
 ! D47   D(20,19,24,26)         -2.2265         estimate D2E/DX2                !
 ! D48   D(19,24,26,1)         103.374          estimate D2E/DX2                !
 ! D49   D(19,24,26,27)        -20.4329         estimate D2E/DX2                !
 ! D50   D(19,24,26,28)       -135.8094         estimate D2E/DX2                !
 ! D51   D(25,24,26,1)         -77.6406         estimate D2E/DX2                !
 ! D52   D(25,24,26,27)        158.5524         estimate D2E/DX2                !
 ! D53   D(25,24,26,28)         43.1759         estimate D2E/DX2                !
 --------------------------------------------------------------------------------
 Trust Radius=3.00D-01 FncErr=1.00D-07 GrdErr=1.00D-07 EigMax=2.50D+02 EigMin=1.00D-04
 Number of steps in this run=    138 maximum allowed number of steps=    168.
 GradGradGradGradGradGradGradGradGradGradGradGradGradGradGradGradGradGrad

 Leave Link  103 at Fri Sep 17 14:15:42 2021, MaxMem=   524288000 cpu:               0.0 elap:               0.1
 (Enter /opt/gaussian/g16_legacy/l202.exe)
                          Input orientation:                          
 ---------------------------------------------------------------------
 Center     Atomic      Atomic             Coordinates (Angstroms)
 Number     Number       Type             X           Y           Z
 ---------------------------------------------------------------------
      1          6           0        0.396500   -0.941500    0.722900
      2          1           0       -0.134300   -0.277100    1.415200
      3          1           0       -0.013300   -1.940900    0.922000
      4          6           0        1.881200   -0.948000    1.023800
      5          6           0        2.599700   -2.223600    0.665600
      6          1           0        3.666200   -2.181800    0.911000
      7          1           0        2.167700   -3.068700    1.211500
      8          1           0        2.515500   -2.422000   -0.407500
      9          6           0        2.547200    0.077400    1.590800
     10          1           0        3.613000   -0.037500    1.786200
     11          6           0        1.999200    1.413200    1.983100
     12          1           0        0.973900    1.579800    1.645700
     13          1           0        2.027600    1.521300    3.071500
     14          1           0        2.618200    2.203500    1.546000
     15          6           0       -3.663300    0.329200   -1.423600
     16          1           0       -3.920000    0.872900   -2.338700
     17          1           0       -4.286900    0.707200   -0.606900
     18          1           0       -3.921700   -0.723500   -1.579400
     19          6           0       -2.204600    0.518400   -1.097900
     20          6           0       -1.799300    1.950700   -0.883800
     21          1           0       -2.452600    2.418700   -0.139400
     22          1           0       -1.888100    2.510800   -1.820300
     23          1           0       -0.775600    2.062700   -0.519900
     24          6           0       -1.378200   -0.541800   -1.005700
     25          1           0       -1.792000   -1.537900   -1.163800
     26          6           0        0.100600   -0.532100   -0.723400
     27          1           0        0.544900    0.444600   -0.941300
     28          1           0        0.578500   -1.234000   -1.418500
 ---------------------------------------------------------------------
                    Distance matrix (angstroms):
                    1          2          3          4          5
     1  C    0.000000
     2  H    1.096565   0.000000
     3  H    1.098352   1.739574   0.000000
     4  C    1.514898   2.159986   2.141342   0.000000
     5  C    2.549736   3.438825   2.640725   1.507218   0.000000
     6  H    3.502094   4.280876   3.687394   2.172835   1.095167
     7  H    2.810847   3.624049   2.472348   2.148181   1.094909
     8  H    2.821320   3.865782   2.897215   2.150263   1.094530
     9  C    2.533164   2.710525   3.328211   1.347772   2.480595
    10  H    3.506237   3.773236   4.185669   2.099856   2.657359
    11  C    3.114701   2.780548   4.052910   2.551362   3.914425
    12  H    2.746253   2.174699   3.727417   2.756760   4.250844
    13  H    3.773830   3.263646   4.557681   3.211223   4.487753
    14  H    3.937572   3.707660   4.948759   3.278386   4.513830
    15  C    4.764884   4.569489   4.896702   6.193746   7.078610
    16  H    5.594427   5.453970   5.814804   6.948094   7.817968
    17  H    5.140118   4.722480   5.254867   6.591231   7.591713
    18  H    4.898465   4.848845   4.797359   6.364016   7.058256
    19  C    3.494616   3.351811   3.863929   4.831739   5.806014
    20  C    3.970874   3.608423   4.647070   5.058407   6.259123
    21  H    4.489084   3.880546   5.107139   5.609771   6.908307
    22  H    4.858563   4.616997   5.554522   5.853189   6.981016
    23  H    3.455950   3.103311   4.323076   4.301850   5.583048
    24  C    2.509458   2.734613   2.745261   3.861031   4.630916
    25  H    2.950400   3.314940   2.770694   4.315782   4.806653
    26  C    1.531975   2.166521   2.169109   2.529074   3.322047
    27  H    2.170912   2.556415   3.078000   2.754387   3.731437
    28  H    2.168934   3.074670   2.515527   2.782742   3.067251
                    6          7          8          9         10
     6  H    0.000000
     7  H    1.767030   0.000000
     8  H    1.766423   1.777736   0.000000
     9  C    2.611182   3.191525   3.200189   0.000000
    10  H    2.316641   3.406955   3.420916   1.089639   0.000000
    11  C    4.105157   4.550954   4.548658   1.496183   2.178910
    12  H    4.683791   4.818946   4.754636   2.176119   3.098427
    13  H    4.589741   4.954526   5.281203   2.132441   2.568141
    14  H    4.553283   5.301974   5.022147   2.127757   2.463616
    15  C    8.091789   7.245001   6.839527   6.907990   7.961270
    16  H    8.800123   8.074665   7.483419   7.609104   8.636534
    17  H    8.596635   7.695834   7.490280   7.206348   8.287939
    18  H    8.118187   7.097174   6.759867   7.248329   8.280674
    19  C    6.767056   6.108815   5.603744   5.477517   6.517018
    20  C    7.083118   6.732143   6.161564   5.340876   6.354119
    21  H    7.727073   7.299566   6.941633   5.785610   6.821463
    22  H    7.767287   7.534729   6.761672   6.101551   7.054274
    23  H    6.308157   6.163767   5.563857   4.408795   5.384120
    24  C    5.639974   4.886165   4.365077   4.746998   5.741176
    25  H    5.874636   4.864630   4.461858   5.387548   6.337801
    26  C    4.255147   3.801458   3.082735   3.422406   4.345075
    27  H    4.480123   4.428465   3.519318   3.248934   4.133390
    28  H    3.982309   3.578908   2.487053   3.827719   4.572735
                   11         12         13         14         15
    11  C    0.000000
    12  H    1.092170   0.000000
    13  H    1.094124   1.773869   0.000000
    14  H    1.094893   1.761438   1.772387   0.000000
    15  C    6.696609   5.699844   7.349379   7.196441   0.000000
    16  H    7.348932   6.350229   8.066265   7.720716   1.094949
    17  H    6.835319   5.788925   7.352979   7.386088   1.094879
    18  H    7.232838   6.298679   7.878082   7.817016   1.095090
    19  C    5.288210   4.330909   6.025050   5.752319   1.506547
    20  C    4.789220   3.771813   5.520321   5.047984   2.528862
    21  H    5.033345   3.953636   5.584568   5.347887   2.735137
    22  H    5.548124   4.590312   6.343621   5.633218   2.840437
    23  H    3.792937   2.825556   4.587941   3.975632   3.487192
    24  C    4.915463   4.130797   5.699071   5.478965   2.480920
    25  H    5.743272   5.026286   6.471925   6.386780   2.656186
    26  C    3.835885   3.291718   4.725574   4.355685   3.924164
    27  H    3.406654   2.857497   4.411377   3.684965   4.237320
    28  H    4.538385   4.178891   5.463668   4.976449   4.520673
                   16         17         18         19         20
    16  H    0.000000
    17  H    1.777977   0.000000
    18  H    1.767776   1.768058   0.000000
    19  C    2.146591   2.147720   2.173152   0.000000
    20  C    2.788504   2.794838   3.484220   1.503858   0.000000
    21  H    3.062626   2.551949   3.755699   2.142747   1.095425
    22  H    2.660841   3.237214   3.828088   2.142823   1.094819
    23  H    3.822422   3.764861   4.333982   2.181969   1.092213
    24  C    3.199846   3.190545   2.613721   1.347391   2.530759
    25  H    3.423555   3.402225   2.317670   2.098321   3.499826
    26  C    4.555046   4.560657   4.116827   2.560810   3.130438
    27  H    4.698031   4.850471   4.660702   2.754945   2.786919
    28  H    5.051960   5.300856   4.531920   3.304442   4.010256
                   21         22         23         24         25
    21  H    0.000000
    22  H    1.775547   0.000000
    23  H    1.756088   1.769036   0.000000
    24  C    3.266400   3.200303   2.717085   0.000000
    25  H    4.140105   4.102706   3.796314   1.090157   0.000000
    26  C    3.945517   3.797020   2.746293   1.505535   2.188040
    27  H    3.677652   3.310787   2.130621   2.162278   3.072607
    28  H    4.915881   4.502120   3.675500   2.116180   2.403435
                   26         27         28
    26  C    0.000000
    27  H    1.094909   0.000000
    28  H    1.097368   1.745436   0.000000
 Stoichiometry    C10H18
 Framework group  C1[X(C10H18)]
 Deg. of freedom    78
 Full point group                 C1      NOp   1
 Largest Abelian subgroup         C1      NOp   1
 Largest concise Abelian subgroup C1      NOp   1
                         Standard orientation:                         
 ---------------------------------------------------------------------
 Center     Atomic      Atomic             Coordinates (Angstroms)
 Number     Number       Type             X           Y           Z
 ---------------------------------------------------------------------
      1          6           0        0.793749   -0.586515    0.589178
      2          1           0        0.484606    0.235261    1.246119
      3          1           0        0.745981   -1.484367    1.220016
      4          6           0        2.220947   -0.386956    0.122060
      5          6           0        2.975630   -1.655071   -0.184603
      6          1           0        4.003219   -1.458189   -0.508158
      7          1           0        3.025285   -2.291723    0.704797
      8          1           0        2.478656   -2.212265   -0.984945
      9          6           0        2.820266    0.813882   -0.001614
     10          1           0        3.860378    0.846757   -0.324722
     11          6           0        2.215696    2.161909    0.234784
     12          1           0        1.137474    2.131990    0.406182
     13          1           0        2.690812    2.635759    1.098983
     14          1           0        2.388737    2.797214   -0.639994
     15          6           0       -3.965117   -0.407937    0.429732
     16          1           0       -4.709041   -0.227471   -0.353161
     17          1           0       -4.237111    0.181176    1.311619
     18          1           0       -4.023697   -1.466057    0.705726
     19          6           0       -2.593401   -0.018235   -0.056282
     20          6           0       -2.465931    1.425895   -0.456068
     21          1           0       -2.815399    2.072725    0.355991
     22          1           0       -3.076439    1.626127   -1.342531
     23          1           0       -1.439653    1.725967   -0.678865
     24          6           0       -1.596312   -0.923545   -0.097406
     25          1           0       -1.804012   -1.940177    0.236898
     26          6           0       -0.185978   -0.715537   -0.581479
     27          1           0       -0.111263    0.157029   -1.238650
     28          1           0        0.084177   -1.577107   -1.205121
 ---------------------------------------------------------------------
 Rotational constants (GHZ):           2.2180963           0.5802322           0.4854237
 Leave Link  202 at Fri Sep 17 14:15:43 2021, MaxMem=   524288000 cpu:               0.0 elap:               0.1
 (Enter /opt/gaussian/g16_legacy/l301.exe)
 Standard basis: 6-31G(d,p) (6D, 7F)
 Ernie: Thresh=  0.10000D-02 Tol=  0.10000D-05 Strict=F.
 There are   240 symmetry adapted cartesian basis functions of A   symmetry.
 There are   240 symmetry adapted basis functions of A   symmetry.
   240 basis functions,   406 primitive gaussians,   240 cartesian basis functions
    39 alpha electrons       39 beta electrons
       nuclear repulsion energy       516.4348896269 Hartrees.
 IExCor=    0 DFT=F Ex=HF Corr=None ExCW=0 ScaHFX=  1.000000
 ScaDFX=  1.000000  1.000000  1.000000  1.000000 ScalE2=  1.000000  1.000000
 IRadAn=      5 IRanWt=     -1 IRanGd=            0 ICorTp=0 IEmpDi=  4
 NAtoms=   28 NActive=   28 NUniq=   28 SFac= 1.00D+00 NAtFMM=   60 NAOKFM=F Big=F
 Integral buffers will be    131072 words long.
 Raffenetti 1 integral format.
 Two-electron integral symmetry is turned on.
 Leave Link  301 at Fri Sep 17 14:15:43 2021, MaxMem=   524288000 cpu:               0.0 elap:               0.1
 (Enter /opt/gaussian/g16_legacy/l302.exe)
 NPDir=0 NMtPBC=     1 NCelOv=     1 NCel=       1 NClECP=     1 NCelD=      1
         NCelK=      1 NCelE2=     1 NClLst=     1 CellRange=     0.0.
 One-electron integrals computed using PRISM.
 One-electron integral symmetry used in STVInt
 NBasis=   240 RedAO= T EigKep=  2.10D-03  NBF=   240
 NBsUse=   240 1.00D-06 EigRej= -1.00D+00 NBFU=   240
 Leave Link  302 at Fri Sep 17 14:15:43 2021, MaxMem=   524288000 cpu:               0.2 elap:               0.4
 (Enter /opt/gaussian/g16_legacy/l303.exe)
 DipDrv:  MaxL=1.
 Leave Link  303 at Fri Sep 17 14:15:44 2021, MaxMem=   524288000 cpu:               0.0 elap:               0.1
 (Enter /opt/gaussian/g16_legacy/l401.exe)
 ExpMin= 1.61D-01 ExpMax= 3.05D+03 ExpMxC= 4.57D+02 IAcc=3 IRadAn=         5 AccDes= 0.00D+00
 Harris functional with IExCor=  205 and IRadAn=       5 diagonalized for initial guess.
 HarFok:  IExCor=  205 AccDes= 0.00D+00 IRadAn=         5 IDoV= 1 UseB2=F ITyADJ=14
 ICtDFT=  3500011 ScaDFX=  1.000000  1.000000  1.000000  1.000000
 FoFCou: FMM=F IPFlag=           0 FMFlag=      100000 FMFlg1=           0
         NFxFlg=           0 DoJE=T BraDBF=F KetDBF=T FulRan=T
         wScrn=  0.000000 ICntrl=       500 IOpCl=  0 I1Cent=   200000004 NGrid=           0
         NMat0=    1 NMatS0=      1 NMatT0=    0 NMatD0=    1 NMtDS0=    0 NMtDT0=    0
 Petite list used in FoFCou.
 Harris En= -390.109904140287    
 JPrj=0 DoOrth=F DoCkMO=F.
 Leave Link  401 at Fri Sep 17 14:15:51 2021, MaxMem=   524288000 cpu:               6.6 elap:               6.9
 (Enter /opt/gaussian/g16_legacy/l502.exe)
 Keep R1 ints in memory in canonical form, NReq=425198025.
 FoFCou: FMM=F IPFlag=           0 FMFlag=           0 FMFlg1=           0
         NFxFlg=           0 DoJE=F BraDBF=F KetDBF=F FulRan=T
         wScrn=  0.000000 ICntrl=       600 IOpCl=  0 I1Cent=           0 NGrid=           0
         NMat0=    1 NMatS0=  28920 NMatT0=    0 NMatD0=    1 NMtDS0=    0 NMtDT0=    0
 Symmetry not used in FoFCou.
 Two-electron integral symmetry not used.
 Closed shell SCF:
 Using DIIS extrapolation, IDIIS=  1040.
 NGot=   524288000 LenX=   105970886 LenY=   105912845
 Requested convergence on RMS density matrix=1.00D-08 within 128 cycles.
 Requested convergence on MAX density matrix=1.00D-06.
 Requested convergence on             energy=1.00D-06.
 No special actions if energy rises.

 Cycle   1  Pass 1  IDiag  1:
 E= -388.533187266674    
 DIIS: error= 5.21D-02 at cycle   1 NSaved=   1.
 NSaved= 1 IEnMin= 1 EnMin= -388.533187266674     IErMin= 1 ErrMin= 5.21D-02
 ErrMax= 5.21D-02  0.00D+00 EMaxC= 1.00D-01 BMatC= 8.07D-01 BMatP= 8.07D-01
 IDIUse=3 WtCom= 4.79D-01 WtEn= 5.21D-01
 Coeff-Com:  0.100D+01
 Coeff-En:   0.100D+01
 Coeff:      0.100D+01
 Gap=     0.508 Goal=   None    Shift=    0.000
 GapD=    0.508 DampG=2.000 DampE=0.500 DampFc=1.0000 IDamp=-1.
 RMSDP=4.00D-03 MaxDP=1.14D-01              OVMax= 1.33D-01

 Cycle   2  Pass 1  IDiag  1:
 E= -389.073882358840     Delta-E=       -0.540695092165 Rises=F Damp=F
 DIIS: error= 1.59D-02 at cycle   2 NSaved=   2.
 NSaved= 2 IEnMin= 2 EnMin= -389.073882358840     IErMin= 2 ErrMin= 1.59D-02
 ErrMax= 1.59D-02  0.00D+00 EMaxC= 1.00D-01 BMatC= 8.66D-02 BMatP= 8.07D-01
 IDIUse=3 WtCom= 8.41D-01 WtEn= 1.59D-01
 Coeff-Com:  0.183D+00 0.817D+00
 Coeff-En:   0.000D+00 0.100D+01
 Coeff:      0.154D+00 0.846D+00
 Gap=     0.549 Goal=   None    Shift=    0.000
 RMSDP=1.63D-03 MaxDP=3.04D-02 DE=-5.41D-01 OVMax= 4.61D-02

 Cycle   3  Pass 1  IDiag  1:
 E= -389.151439421268     Delta-E=       -0.077557062428 Rises=F Damp=F
 DIIS: error= 3.43D-03 at cycle   3 NSaved=   3.
 NSaved= 3 IEnMin= 3 EnMin= -389.151439421268     IErMin= 3 ErrMin= 3.43D-03
 ErrMax= 3.43D-03  0.00D+00 EMaxC= 1.00D-01 BMatC= 3.14D-03 BMatP= 8.66D-02
 IDIUse=3 WtCom= 9.66D-01 WtEn= 3.43D-02
 Coeff-Com: -0.245D-01 0.106D+00 0.919D+00
 Coeff-En:   0.000D+00 0.000D+00 0.100D+01
 Coeff:     -0.236D-01 0.102D+00 0.921D+00
 Gap=     0.499 Goal=   None    Shift=    0.000
 RMSDP=2.59D-04 MaxDP=7.14D-03 DE=-7.76D-02 OVMax= 1.01D-02

 Cycle   4  Pass 1  IDiag  1:
 E= -389.155064953146     Delta-E=       -0.003625531879 Rises=F Damp=F
 DIIS: error= 5.31D-04 at cycle   4 NSaved=   4.
 NSaved= 4 IEnMin= 4 EnMin= -389.155064953146     IErMin= 4 ErrMin= 5.31D-04
 ErrMax= 5.31D-04  0.00D+00 EMaxC= 1.00D-01 BMatC= 9.28D-05 BMatP= 3.14D-03
 IDIUse=3 WtCom= 9.95D-01 WtEn= 5.31D-03
 Coeff-Com: -0.424D-02-0.189D-02 0.950D-01 0.911D+00
 Coeff-En:   0.000D+00 0.000D+00 0.000D+00 0.100D+01
 Coeff:     -0.421D-02-0.188D-02 0.945D-01 0.912D+00
 Gap=     0.499 Goal=   None    Shift=    0.000
 RMSDP=7.39D-05 MaxDP=1.49D-03 DE=-3.63D-03 OVMax= 3.14D-03

 Cycle   5  Pass 1  IDiag  1:
 E= -389.155189280956     Delta-E=       -0.000124327810 Rises=F Damp=F
 DIIS: error= 1.63D-04 at cycle   5 NSaved=   5.
 NSaved= 5 IEnMin= 5 EnMin= -389.155189280956     IErMin= 5 ErrMin= 1.63D-04
 ErrMax= 1.63D-04  0.00D+00 EMaxC= 1.00D-01 BMatC= 1.60D-05 BMatP= 9.28D-05
 IDIUse=3 WtCom= 9.98D-01 WtEn= 1.63D-03
 Coeff-Com:  0.241D-02-0.152D-01-0.102D+00 0.176D+00 0.939D+00
 Coeff-En:   0.000D+00 0.000D+00 0.000D+00 0.000D+00 0.100D+01
 Coeff:      0.241D-02-0.152D-01-0.102D+00 0.175D+00 0.939D+00
 Gap=     0.500 Goal=   None    Shift=    0.000
 RMSDP=3.00D-05 MaxDP=6.56D-04 DE=-1.24D-04 OVMax= 9.23D-04

 Cycle   6  Pass 1  IDiag  1:
 E= -389.155210760044     Delta-E=       -0.000021479088 Rises=F Damp=F
 DIIS: error= 3.58D-05 at cycle   6 NSaved=   6.
 NSaved= 6 IEnMin= 6 EnMin= -389.155210760044     IErMin= 6 ErrMin= 3.58D-05
 ErrMax= 3.58D-05  0.00D+00 EMaxC= 1.00D-01 BMatC= 5.50D-07 BMatP= 1.60D-05
 IDIUse=1 WtCom= 1.00D+00 WtEn= 0.00D+00
 Coeff-Com:  0.720D-03-0.335D-02-0.261D-01-0.434D-02 0.177D+00 0.856D+00
 Coeff:      0.720D-03-0.335D-02-0.261D-01-0.434D-02 0.177D+00 0.856D+00
 Gap=     0.500 Goal=   None    Shift=    0.000
 RMSDP=5.30D-06 MaxDP=1.61D-04 DE=-2.15D-05 OVMax= 3.23D-04

 Cycle   7  Pass 1  IDiag  1:
 E= -389.155211600980     Delta-E=       -0.000000840936 Rises=F Damp=F
 DIIS: error= 1.03D-05 at cycle   7 NSaved=   7.
 NSaved= 7 IEnMin= 7 EnMin= -389.155211600980     IErMin= 7 ErrMin= 1.03D-05
 ErrMax= 1.03D-05  0.00D+00 EMaxC= 1.00D-01 BMatC= 5.44D-08 BMatP= 5.50D-07
 IDIUse=1 WtCom= 1.00D+00 WtEn= 0.00D+00
 Coeff-Com: -0.494D-04 0.463D-03 0.301D-02-0.105D-01-0.468D-01 0.145D+00
 Coeff-Com:  0.909D+00
 Coeff:     -0.494D-04 0.463D-03 0.301D-02-0.105D-01-0.468D-01 0.145D+00
 Coeff:      0.909D+00
 Gap=     0.500 Goal=   None    Shift=    0.000
 RMSDP=1.71D-06 MaxDP=4.10D-05 DE=-8.41D-07 OVMax= 8.41D-05

 Cycle   8  Pass 1  IDiag  1:
 E= -389.155211689888     Delta-E=       -0.000000088908 Rises=F Damp=F
 DIIS: error= 3.51D-06 at cycle   8 NSaved=   8.
 NSaved= 8 IEnMin= 8 EnMin= -389.155211689888     IErMin= 8 ErrMin= 3.51D-06
 ErrMax= 3.51D-06  0.00D+00 EMaxC= 1.00D-01 BMatC= 5.09D-09 BMatP= 5.44D-08
 IDIUse=1 WtCom= 1.00D+00 WtEn= 0.00D+00
 Coeff-Com: -0.581D-04 0.249D-03 0.208D-02 0.315D-02-0.171D-01-0.803D-01
 Coeff-Com: -0.123D+00 0.121D+01
 Coeff:     -0.581D-04 0.249D-03 0.208D-02 0.315D-02-0.171D-01-0.803D-01
 Coeff:     -0.123D+00 0.121D+01
 Gap=     0.500 Goal=   None    Shift=    0.000
 RMSDP=7.85D-07 MaxDP=2.40D-05 DE=-8.89D-08 OVMax= 5.81D-05

 Cycle   9  Pass 1  IDiag  1:
 E= -389.155211705745     Delta-E=       -0.000000015856 Rises=F Damp=F
 DIIS: error= 1.46D-06 at cycle   9 NSaved=   9.
 NSaved= 9 IEnMin= 9 EnMin= -389.155211705745     IErMin= 9 ErrMin= 1.46D-06
 ErrMax= 1.46D-06  0.00D+00 EMaxC= 1.00D-01 BMatC= 7.38D-10 BMatP= 5.09D-09
 IDIUse=1 WtCom= 1.00D+00 WtEn= 0.00D+00
 Coeff-Com:  0.928D-05-0.690D-04-0.480D-03 0.144D-02 0.385D-02 0.929D-04
 Coeff-Com: -0.865D-01-0.120D+00 0.120D+01
 Coeff:      0.928D-05-0.690D-04-0.480D-03 0.144D-02 0.385D-02 0.929D-04
 Coeff:     -0.865D-01-0.120D+00 0.120D+01
 Gap=     0.500 Goal=   None    Shift=    0.000
 RMSDP=2.99D-07 MaxDP=1.24D-05 DE=-1.59D-08 OVMax= 2.71D-05

 Cycle  10  Pass 1  IDiag  1:
 E= -389.155211708159     Delta-E=       -0.000000002414 Rises=F Damp=F
 DIIS: error= 3.97D-07 at cycle  10 NSaved=  10.
 NSaved=10 IEnMin=10 EnMin= -389.155211708159     IErMin=10 ErrMin= 3.97D-07
 ErrMax= 3.97D-07  0.00D+00 EMaxC= 1.00D-01 BMatC= 1.21D-10 BMatP= 7.38D-10
 IDIUse=1 WtCom= 1.00D+00 WtEn= 0.00D+00
 Coeff-Com:  0.952D-05-0.464D-04-0.369D-03-0.135D-03 0.233D-02 0.142D-01
 Coeff-Com:  0.595D-02-0.211D+00 0.143D+00 0.105D+01
 Coeff:      0.952D-05-0.464D-04-0.369D-03-0.135D-03 0.233D-02 0.142D-01
 Coeff:      0.595D-02-0.211D+00 0.143D+00 0.105D+01
 Gap=     0.500 Goal=   None    Shift=    0.000
 RMSDP=1.24D-07 MaxDP=3.06D-06 DE=-2.41D-09 OVMax= 9.88D-06

 Cycle  11  Pass 1  IDiag  1:
 E= -389.155211708496     Delta-E=       -0.000000000337 Rises=F Damp=F
 DIIS: error= 1.55D-07 at cycle  11 NSaved=  11.
 NSaved=11 IEnMin=11 EnMin= -389.155211708496     IErMin=11 ErrMin= 1.55D-07
 ErrMax= 1.55D-07  0.00D+00 EMaxC= 1.00D-01 BMatC= 9.54D-12 BMatP= 1.21D-10
 IDIUse=1 WtCom= 1.00D+00 WtEn= 0.00D+00
 Coeff-Com:  0.395D-06 0.837D-06 0.991D-06-0.149D-03-0.305D-03 0.278D-02
 Coeff-Com:  0.110D-01-0.153D-01-0.107D+00 0.164D+00 0.945D+00
 Coeff:      0.395D-06 0.837D-06 0.991D-06-0.149D-03-0.305D-03 0.278D-02
 Coeff:      0.110D-01-0.153D-01-0.107D+00 0.164D+00 0.945D+00
 Gap=     0.500 Goal=   None    Shift=    0.000
 RMSDP=2.76D-08 MaxDP=1.16D-06 DE=-3.37D-10 OVMax= 2.51D-06

 Cycle  12  Pass 1  IDiag  1:
 E= -389.155211708498     Delta-E=       -0.000000000002 Rises=F Damp=F
 DIIS: error= 3.63D-08 at cycle  12 NSaved=  12.
 NSaved=12 IEnMin=12 EnMin= -389.155211708498     IErMin=12 ErrMin= 3.63D-08
 ErrMax= 3.63D-08  0.00D+00 EMaxC= 1.00D-01 BMatC= 1.17D-12 BMatP= 9.54D-12
 IDIUse=1 WtCom= 1.00D+00 WtEn= 0.00D+00
 Coeff-Com: -0.102D-05 0.547D-05 0.429D-04 0.324D-05-0.342D-03-0.126D-02
 Coeff-Com:  0.366D-03 0.217D-01-0.321D-01-0.113D+00 0.982D-01 0.103D+01
 Coeff:     -0.102D-05 0.547D-05 0.429D-04 0.324D-05-0.342D-03-0.126D-02
 Coeff:      0.366D-03 0.217D-01-0.321D-01-0.113D+00 0.982D-01 0.103D+01
 Gap=     0.500 Goal=   None    Shift=    0.000
 RMSDP=1.18D-08 MaxDP=3.33D-07 DE=-1.59D-12 OVMax= 8.46D-07

 Cycle  13  Pass 1  IDiag  1:
 E= -389.155211708517     Delta-E=       -0.000000000020 Rises=F Damp=F
 DIIS: error= 1.06D-08 at cycle  13 NSaved=  13.
 NSaved=13 IEnMin=13 EnMin= -389.155211708517     IErMin=13 ErrMin= 1.06D-08
 ErrMax= 1.06D-08  0.00D+00 EMaxC= 1.00D-01 BMatC= 5.47D-14 BMatP= 1.17D-12
 IDIUse=1 WtCom= 1.00D+00 WtEn= 0.00D+00
 Coeff-Com: -0.122D-06 0.462D-06 0.390D-05 0.136D-04-0.170D-04-0.298D-03
 Coeff-Com: -0.849D-03 0.352D-02 0.516D-02-0.213D-01-0.612D-01 0.111D+00
 Coeff-Com:  0.964D+00
 Coeff:     -0.122D-06 0.462D-06 0.390D-05 0.136D-04-0.170D-04-0.298D-03
 Coeff:     -0.849D-03 0.352D-02 0.516D-02-0.213D-01-0.612D-01 0.111D+00
 Coeff:      0.964D+00
 Gap=     0.500 Goal=   None    Shift=    0.000
 RMSDP=2.12D-09 MaxDP=7.02D-08 DE=-1.98D-11 OVMax= 1.05D-07

 SCF Done:  E(RHF) =  -389.155211709     A.U. after   13 cycles
            NFock= 13  Conv=0.21D-08     -V/T= 2.0014
 KE= 3.886260896021D+02 PE=-1.937503751324D+03 EE= 6.432875603863D+02
 Leave Link  502 at Fri Sep 17 14:16:07 2021, MaxMem=   524288000 cpu:              16.6 elap:              16.9
 (Enter /opt/gaussian/g16_legacy/l801.exe)
 ExpMin= 1.61D-01 ExpMax= 3.05D+03 ExpMxC= 4.57D+02 IAcc=3 IRadAn=         5 AccDes= 0.00D+00
 HarFok:  IExCor=  205 AccDes= 0.00D+00 IRadAn=         5 IDoV=-2 UseB2=F ITyADJ=14
 ICtDFT= 12500011 ScaDFX=  1.000000  1.000000  1.000000  1.000000
 Largest valence mixing into a core orbital is  1.98D-04
 Largest core mixing into a valence orbital is  3.52D-05
 Range of M.O.s used for correlation:    11   240
 NBasis=   240 NAE=    39 NBE=    39 NFC=    10 NFV=     0
 NROrb=    230 NOA=    29 NOB=    29 NVA=   201 NVB=   201
 Leave Link  801 at Fri Sep 17 14:16:08 2021, MaxMem=   524288000 cpu:               0.9 elap:               0.9
 (Enter /opt/gaussian/g16_legacy/l906.exe)
 Frozen-core derivative calculation, NFC=  10 NFV=   0.
 FulOut=F Deriv=T AODrv=T NAtomX=    28
   MMem=          88  MDisk=          29 MDiskD=          29
  W3Min=     2246400 MinDsk=     2795480 NBas6D=         240
 NBas2D=       29244    NTT=       28920    LW2=     2040000
    MDV=   523626386 MDiskM=       30186 NBas2p=       24383
 Fully direct method using O(ONN) memory.
 IMap=   1   2   3   4   5   6   7   8   9  10  11  12  13  14  15  16  17  18  19  20
 IMap=  21  22  23  24  25  26  27  28  29  30  31  32  33  34  35  36  37  38  39
 JobTyp=1 Pass  1:  I=  11 to  39 NPSUse=  1 ParTrn=F ParDer=F DoDerP=T.
 Spin components of T(2) and E(2):
     alpha-alpha T2 =       0.5715101903D-01 E2=     -0.1638019616D+00
     alpha-beta  T2 =       0.3618127511D+00 E2=     -0.1089335283D+01
     beta-beta   T2 =       0.5715101903D-01 E2=     -0.1638019616D+00
 The integrals were generated   1 times.
 ANorm=    0.1214954645D+01
 E2 =    -0.1416939206D+01 EUMP2 =    -0.39057215091467D+03
 Leave Link  906 at Fri Sep 17 14:18:25 2021, MaxMem=   524288000 cpu:             136.7 elap:             136.8
 (Enter /opt/gaussian/g16_legacy/l1002.exe)
 Minotr:  Closed shell wavefunction.
          Computing MP2/KS-MP2 derivatives.
          Using Z-Vector for PSCF gradient.
          Skipping F1 and S1 gradient terms here.
          IDoAtm=1111111111111111111111111111
          Frozen-core window.
          Direct CPHF calculation.
          Differentiating once with respect to electric field.
                with respect to dipole field.
          Differentiating once with respect to nuclear coordinates.
          Requested convergence is 1.0D-10 RMS, and 1.0D-09 maximum.
          NewPWx=F KeepS1=T KeepF1=T KeepIn=T MapXYZ=F SortEE=F KeepMc=T.
 Keep R1 ints in memory in canonical form, NReq=425201067.
 FoFCou: FMM=F IPFlag=           0 FMFlag=           0 FMFlg1=           0
         NFxFlg=           0 DoJE=F BraDBF=F KetDBF=F FulRan=T
         wScrn=  0.000000 ICntrl=       600 IOpCl=  0 I1Cent=           0 NGrid=           0
         NMat0=    1 NMatS0=  28920 NMatT0=    0 NMatD0=    1 NMtDS0=    0 NMtDT0=    0
 Symmetry not used in FoFCou.
 Two-electron integral symmetry not used.
          MDV=     524288000 using IRadAn=       5.
          Solving linear equations separately, MaxMat=       0.
          There are     1 degrees of freedom in the 1st order CPHF.  IDoFFX=0 NUNeed=     1.
 LinEq1:  Iter=  0 NonCon=     1 RMS=2.55D-03 Max=3.76D-02 NDo=     1
 AX will form     1 AO Fock derivatives at one time.
 LinEq1:  Iter=  1 NonCon=     1 RMS=6.90D-04 Max=9.75D-03 NDo=     1
 LinEq1:  Iter=  2 NonCon=     1 RMS=1.61D-04 Max=4.14D-03 NDo=     1
 LinEq1:  Iter=  3 NonCon=     1 RMS=4.31D-05 Max=5.07D-04 NDo=     1
 LinEq1:  Iter=  4 NonCon=     1 RMS=1.99D-05 Max=8.55D-04 NDo=     1
 LinEq1:  Iter=  5 NonCon=     1 RMS=5.06D-06 Max=8.26D-05 NDo=     1
 LinEq1:  Iter=  6 NonCon=     1 RMS=1.63D-06 Max=2.68D-05 NDo=     1
 LinEq1:  Iter=  7 NonCon=     1 RMS=4.13D-07 Max=4.19D-06 NDo=     1
 LinEq1:  Iter=  8 NonCon=     1 RMS=1.01D-07 Max=1.86D-06 NDo=     1
 LinEq1:  Iter=  9 NonCon=     1 RMS=2.33D-08 Max=6.32D-07 NDo=     1
 LinEq1:  Iter= 10 NonCon=     1 RMS=6.42D-09 Max=1.62D-07 NDo=     1
 LinEq1:  Iter= 11 NonCon=     1 RMS=1.89D-09 Max=3.63D-08 NDo=     1
 LinEq1:  Iter= 12 NonCon=     1 RMS=4.11D-10 Max=6.95D-09 NDo=     1
 LinEq1:  Iter= 13 NonCon=     1 RMS=1.03D-10 Max=9.12D-10 NDo=     1
 LinEq1:  Iter= 14 NonCon=     1 RMS=3.86D-11 Max=1.33D-09 NDo=     1
 LinEq1:  Iter= 15 NonCon=     0 RMS=1.19D-11 Max=1.68D-10 NDo=     1
 Linear equations converged to 1.000D-10 1.000D-09 after    15 iterations.
 End of Minotr F.D. properties file   721 does not exist.
 End of Minotr F.D. properties file   722 does not exist.
 End of Minotr F.D. properties file   788 does not exist.
 Leave Link 1002 at Fri Sep 17 14:18:44 2021, MaxMem=   524288000 cpu:              18.7 elap:              18.7
 (Enter /opt/gaussian/g16_legacy/l601.exe)
 Copying SCF densities to generalized density rwf, IOpCl= 0 IROHF=0.

 **********************************************************************

            Population analysis using the SCF density.

 **********************************************************************

 Orbital symmetries:
       Occupied  (A) (A) (A) (A) (A) (A) (A) (A) (A) (A) (A) (A)
                 (A) (A) (A) (A) (A) (A) (A) (A) (A) (A) (A) (A)
                 (A) (A) (A) (A) (A) (A) (A) (A) (A) (A) (A) (A)
                 (A) (A) (A)
       Virtual   (A) (A) (A) (A) (A) (A) (A) (A) (A) (A) (A) (A)
                 (A) (A) (A) (A) (A) (A) (A) (A) (A) (A) (A) (A)
                 (A) (A) (A) (A) (A) (A) (A) (A) (A) (A) (A) (A)
                 (A) (A) (A) (A) (A) (A) (A) (A) (A) (A) (A) (A)
                 (A) (A) (A) (A) (A) (A) (A) (A) (A) (A) (A) (A)
                 (A) (A) (A) (A) (A) (A) (A) (A) (A) (A) (A) (A)
                 (A) (A) (A) (A) (A) (A) (A) (A) (A) (A) (A) (A)
                 (A) (A) (A) (A) (A) (A) (A) (A) (A) (A) (A) (A)
                 (A) (A) (A) (A) (A) (A) (A) (A) (A) (A) (A) (A)
                 (A) (A) (A) (A) (A) (A) (A) (A) (A) (A) (A) (A)
                 (A) (A) (A) (A) (A) (A) (A) (A) (A) (A) (A) (A)
                 (A) (A) (A) (A) (A) (A) (A) (A) (A) (A) (A) (A)
                 (A) (A) (A) (A) (A) (A) (A) (A) (A) (A) (A) (A)
                 (A) (A) (A) (A) (A) (A) (A) (A) (A) (A) (A) (A)
                 (A) (A) (A) (A) (A) (A) (A) (A) (A) (A) (A) (A)
                 (A) (A) (A) (A) (A) (A) (A) (A) (A) (A) (A) (A)
                 (A) (A) (A) (A) (A) (A) (A) (A) (A)
 The electronic state is 1-A.
 Alpha  occ. eigenvalues --  -11.23060 -11.22505 -11.21999 -11.21921 -11.21882
 Alpha  occ. eigenvalues --  -11.21650 -11.21554 -11.21485 -11.21457 -11.21437
 Alpha  occ. eigenvalues --   -1.10623  -1.08327  -1.01911  -0.98012  -0.93647
 Alpha  occ. eigenvalues --   -0.91775  -0.86755  -0.82686  -0.70599  -0.69342
 Alpha  occ. eigenvalues --   -0.64585  -0.61546  -0.60101  -0.59030  -0.58087
 Alpha  occ. eigenvalues --   -0.56803  -0.55368  -0.55150  -0.53548  -0.51981
 Alpha  occ. eigenvalues --   -0.51717  -0.51321  -0.50592  -0.49229  -0.48275
 Alpha  occ. eigenvalues --   -0.46014  -0.44271  -0.33356  -0.31526
 Alpha virt. eigenvalues --    0.18456   0.19494   0.22039   0.24453   0.25183
 Alpha virt. eigenvalues --    0.27141   0.28394   0.28932   0.30250   0.30504
 Alpha virt. eigenvalues --    0.31237   0.32116   0.33136   0.33436   0.34031
 Alpha virt. eigenvalues --    0.35677   0.35774   0.36970   0.38998   0.40647
 Alpha virt. eigenvalues --    0.41064   0.42591   0.43322   0.44191   0.45150
 Alpha virt. eigenvalues --    0.51684   0.54046   0.61171   0.62445   0.70139
 Alpha virt. eigenvalues --    0.71102   0.71886   0.74279   0.76417   0.76617
 Alpha virt. eigenvalues --    0.76877   0.78795   0.79454   0.81139   0.82036
 Alpha virt. eigenvalues --    0.83811   0.85655   0.88078   0.91265   0.92025
 Alpha virt. eigenvalues --    0.92895   0.95178   0.97057   0.98262   0.99206
 Alpha virt. eigenvalues --    0.99750   1.00202   1.02302   1.03924   1.06180
 Alpha virt. eigenvalues --    1.07864   1.08639   1.08810   1.11199   1.12390
 Alpha virt. eigenvalues --    1.12560   1.13432   1.14583   1.14926   1.15820
 Alpha virt. eigenvalues --    1.16165   1.16403   1.18224   1.18704   1.20092
 Alpha virt. eigenvalues --    1.20662   1.22067   1.22854   1.25019   1.27542
 Alpha virt. eigenvalues --    1.34175   1.40671   1.41850   1.43739   1.45169
 Alpha virt. eigenvalues --    1.47561   1.53478   1.56255   1.56977   1.58247
 Alpha virt. eigenvalues --    1.59849   1.62722   1.65795   1.69518   1.70789
 Alpha virt. eigenvalues --    1.75331   1.82527   1.92035   1.92193   1.95501
 Alpha virt. eigenvalues --    1.98630   2.01126   2.02849   2.04184   2.08699
 Alpha virt. eigenvalues --    2.09244   2.11122   2.11379   2.13101   2.14506
 Alpha virt. eigenvalues --    2.15426   2.17688   2.19726   2.23577   2.27385
 Alpha virt. eigenvalues --    2.28339   2.29995   2.32199   2.34976   2.35568
 Alpha virt. eigenvalues --    2.35645   2.35782   2.39323   2.39850   2.40350
 Alpha virt. eigenvalues --    2.41278   2.41828   2.43038   2.45165   2.45387
 Alpha virt. eigenvalues --    2.47034   2.48340   2.49337   2.50338   2.54525
 Alpha virt. eigenvalues --    2.56587   2.57721   2.61276   2.62185   2.64355
 Alpha virt. eigenvalues --    2.66341   2.67160   2.72032   2.72996   2.73748
 Alpha virt. eigenvalues --    2.75719   2.77702   2.81091   2.82805   2.85160
 Alpha virt. eigenvalues --    2.87730   2.89153   2.91919   2.93442   2.94436
 Alpha virt. eigenvalues --    2.97093   2.99037   3.01163   3.02605   3.05103
 Alpha virt. eigenvalues --    3.05824   3.06630   3.08505   3.13017   3.15939
 Alpha virt. eigenvalues --    3.17141   3.18164   3.19616   3.20680   3.21268
 Alpha virt. eigenvalues --    3.23193   3.24412   3.26463   3.27248   3.36666
 Alpha virt. eigenvalues --    3.39075   3.44609   3.45618   3.55556   3.57293
 Alpha virt. eigenvalues --    3.58699   3.61057   3.66894   3.73955   3.78200
 Alpha virt. eigenvalues --    3.78870   3.80509   3.81332   3.82331   3.82838
 Alpha virt. eigenvalues --    3.84211   3.85751   3.87660   3.89518   3.91177
 Alpha virt. eigenvalues --    3.95899   4.59096   4.62633   4.74428   4.82816
 Alpha virt. eigenvalues --    4.88836   4.92668   4.93351   5.07550   5.10286
 Alpha virt. eigenvalues --    5.16870
          Condensed to atoms (all electrons):
               1          2          3          4          5          6
     1  C    5.001813   0.412347   0.413510   0.340287  -0.058752   0.003677
     2  H    0.412347   0.571691  -0.030228  -0.040530   0.003238  -0.000103
     3  H    0.413510  -0.030228   0.588490  -0.045054  -0.004691   0.000081
     4  C    0.340287  -0.040530  -0.045054   4.955068   0.349333  -0.041417
     5  C   -0.058752   0.003238  -0.004691   0.349333   4.896462   0.406175
     6  H    0.003677  -0.000103   0.000081  -0.041417   0.406175   0.571052
     7  H   -0.003554  -0.000016   0.002570  -0.043066   0.397378  -0.027612
     8  H   -0.000531  -0.000030  -0.000276  -0.045805   0.400281  -0.028073
     9  C   -0.044039  -0.002230   0.001918   0.698836  -0.045934  -0.002739
    10  H    0.003079   0.000060  -0.000114  -0.036526  -0.006480   0.002222
    11  C   -0.007062  -0.002134   0.000138  -0.050685   0.003424   0.000137
    12  H   -0.001828  -0.001333   0.000004  -0.000418   0.000092   0.000004
    13  H    0.000227   0.000172   0.000028  -0.001411  -0.000116  -0.000004
    14  H    0.000232  -0.000034  -0.000010   0.000593  -0.000100  -0.000009
    15  C   -0.000101  -0.000042  -0.000000   0.000002  -0.000000   0.000000
    16  H   -0.000004   0.000001   0.000000   0.000000  -0.000000   0.000000
    17  H    0.000022  -0.000005  -0.000001  -0.000000   0.000000  -0.000000
    18  H   -0.000003  -0.000002   0.000002   0.000000  -0.000000   0.000000
    19  C   -0.003608   0.001046   0.000615   0.000006  -0.000002   0.000000
    20  C    0.000597   0.000160  -0.000016  -0.000017  -0.000000  -0.000000
    21  H    0.000077  -0.000076  -0.000001  -0.000002   0.000000  -0.000000
    22  H   -0.000041   0.000014   0.000000   0.000001  -0.000000   0.000000
    23  H   -0.000054  -0.000052  -0.000012  -0.000027  -0.000000   0.000000
    24  C   -0.063073  -0.000808  -0.000608   0.006130  -0.000158   0.000003
    25  H    0.000005   0.000213   0.001003  -0.000155   0.000010  -0.000000
    26  C    0.326228  -0.039856  -0.044597  -0.057355  -0.000187  -0.000097
    27  H   -0.040285  -0.002144   0.004202  -0.001437   0.000317  -0.000010
    28  H   -0.045139   0.004291  -0.002605  -0.001851  -0.000392  -0.000025
               7          8          9         10         11         12
     1  C   -0.003554  -0.000531  -0.044039   0.003079  -0.007062  -0.001828
     2  H   -0.000016  -0.000030  -0.002230   0.000060  -0.002134  -0.001333
     3  H    0.002570  -0.000276   0.001918  -0.000114   0.000138   0.000004
     4  C   -0.043066  -0.045805   0.698836  -0.036526  -0.050685  -0.000418
     5  C    0.397378   0.400281  -0.045934  -0.006480   0.003424   0.000092
     6  H   -0.027612  -0.028073  -0.002739   0.002222   0.000137   0.000004
     7  H    0.593622  -0.035008  -0.000425   0.000248  -0.000114  -0.000001
     8  H   -0.035008   0.594751  -0.001034   0.000123  -0.000100   0.000000
     9  C   -0.000425  -0.001034   4.939957   0.404876   0.337730  -0.041931
    10  H    0.000248   0.000123   0.404876   0.559332  -0.043635   0.003314
    11  C   -0.000114  -0.000100   0.337730  -0.043635   4.906200   0.408023
    12  H   -0.000001   0.000000  -0.041931   0.003314   0.408023   0.573874
    13  H    0.000021  -0.000005  -0.044352  -0.000221   0.400030  -0.026854
    14  H   -0.000004   0.000015  -0.042839  -0.002646   0.402996  -0.030018
    15  C   -0.000000  -0.000000  -0.000000   0.000000  -0.000000   0.000000
    16  H    0.000000   0.000000   0.000000   0.000000  -0.000000  -0.000000
    17  H   -0.000000   0.000000  -0.000000  -0.000000   0.000000  -0.000000
    18  H   -0.000000  -0.000000  -0.000000   0.000000   0.000000  -0.000000
    19  C    0.000000   0.000000   0.000001   0.000000   0.000007  -0.000013
    20  C   -0.000000  -0.000000   0.000010  -0.000000  -0.000097   0.000010
    21  H   -0.000000   0.000000   0.000000  -0.000000  -0.000003   0.000034
    22  H    0.000000   0.000000   0.000000   0.000000   0.000002  -0.000006
    23  H   -0.000000   0.000000  -0.000032   0.000000   0.000040   0.000570
    24  C    0.000000  -0.000086   0.000070   0.000002  -0.000032   0.000003
    25  H   -0.000002   0.000012  -0.000002  -0.000000   0.000000  -0.000001
    26  C    0.000027   0.000810  -0.004366  -0.000116   0.000690  -0.000212
    27  H    0.000012  -0.000009   0.001215  -0.000044   0.000070  -0.000251
    28  H    0.000093  -0.000187   0.000514   0.000004  -0.000030  -0.000008
              13         14         15         16         17         18
     1  C    0.000227   0.000232  -0.000101  -0.000004   0.000022  -0.000003
     2  H    0.000172  -0.000034  -0.000042   0.000001  -0.000005  -0.000002
     3  H    0.000028  -0.000010  -0.000000   0.000000  -0.000001   0.000002
     4  C   -0.001411   0.000593   0.000002   0.000000  -0.000000   0.000000
     5  C   -0.000116  -0.000100  -0.000000  -0.000000   0.000000  -0.000000
     6  H   -0.000004  -0.000009   0.000000   0.000000  -0.000000   0.000000
     7  H    0.000021  -0.000004  -0.000000   0.000000  -0.000000  -0.000000
     8  H   -0.000005   0.000015  -0.000000   0.000000   0.000000  -0.000000
     9  C   -0.044352  -0.042839  -0.000000   0.000000  -0.000000  -0.000000
    10  H   -0.000221  -0.002646   0.000000   0.000000  -0.000000   0.000000
    11  C    0.400030   0.402996  -0.000000  -0.000000   0.000000   0.000000
    12  H   -0.026854  -0.030018   0.000000  -0.000000  -0.000000  -0.000000
    13  H    0.584226  -0.033273   0.000000   0.000000  -0.000000  -0.000000
    14  H   -0.033273   0.586826  -0.000000  -0.000000   0.000000  -0.000000
    15  C    0.000000  -0.000000   4.903217   0.399262   0.396994   0.405429
    16  H    0.000000  -0.000000   0.399262   0.593091  -0.034899  -0.027570
    17  H   -0.000000   0.000000   0.396994  -0.034899   0.594258  -0.027364
    18  H   -0.000000  -0.000000   0.405429  -0.027570  -0.027364   0.568031
    19  C   -0.000000   0.000000   0.352289  -0.045770  -0.044291  -0.040394
    20  C    0.000002  -0.000004  -0.065372  -0.001106  -0.002137   0.003695
    21  H   -0.000000   0.000000  -0.003430  -0.000507   0.002846   0.000010
    22  H    0.000000  -0.000000  -0.001685   0.002554  -0.000371  -0.000079
    23  H   -0.000008   0.000042   0.003678  -0.000023  -0.000072  -0.000108
    24  C    0.000002  -0.000004  -0.044857  -0.001134  -0.000548  -0.002386
    25  H    0.000000   0.000000  -0.006749   0.000150   0.000235   0.002177
    26  C   -0.000050   0.000091   0.003153  -0.000124  -0.000086   0.000146
    27  H    0.000023  -0.000079   0.000071   0.000004  -0.000004   0.000006
    28  H   -0.000000   0.000000  -0.000102   0.000012  -0.000002  -0.000011
              19         20         21         22         23         24
     1  C   -0.003608   0.000597   0.000077  -0.000041  -0.000054  -0.063073
     2  H    0.001046   0.000160  -0.000076   0.000014  -0.000052  -0.000808
     3  H    0.000615  -0.000016  -0.000001   0.000000  -0.000012  -0.000608
     4  C    0.000006  -0.000017  -0.000002   0.000001  -0.000027   0.006130
     5  C   -0.000002  -0.000000   0.000000  -0.000000  -0.000000  -0.000158
     6  H    0.000000  -0.000000  -0.000000   0.000000   0.000000   0.000003
     7  H    0.000000  -0.000000  -0.000000   0.000000  -0.000000   0.000000
     8  H    0.000000  -0.000000   0.000000   0.000000   0.000000  -0.000086
     9  C    0.000001   0.000010   0.000000   0.000000  -0.000032   0.000070
    10  H    0.000000  -0.000000  -0.000000   0.000000   0.000000   0.000002
    11  C    0.000007  -0.000097  -0.000003   0.000002   0.000040  -0.000032
    12  H   -0.000013   0.000010   0.000034  -0.000006   0.000570   0.000003
    13  H   -0.000000   0.000002  -0.000000   0.000000  -0.000008   0.000002
    14  H    0.000000  -0.000004   0.000000  -0.000000   0.000042  -0.000004
    15  C    0.352289  -0.065372  -0.003430  -0.001685   0.003678  -0.044857
    16  H   -0.045770  -0.001106  -0.000507   0.002554  -0.000023  -0.001134
    17  H   -0.044291  -0.002137   0.002846  -0.000371  -0.000072  -0.000548
    18  H   -0.040394   0.003695   0.000010  -0.000079  -0.000108  -0.002386
    19  C    4.918215   0.348395  -0.043931  -0.043833  -0.037056   0.698184
    20  C    0.348395   4.909225   0.402448   0.398267   0.406160  -0.043332
    21  H   -0.043931   0.402448   0.586212  -0.033105  -0.030013   0.000447
    22  H   -0.043833   0.398267  -0.033105   0.582558  -0.026272  -0.000842
    23  H   -0.037056   0.406160  -0.030013  -0.026272   0.568149  -0.002871
    24  C    0.698184  -0.043332   0.000447  -0.000842  -0.002871   4.961523
    25  H   -0.036137   0.003365  -0.000110  -0.000126   0.000059   0.402011
    26  C   -0.048269  -0.007534   0.000286   0.000188  -0.001943   0.339924
    27  H    0.000823  -0.002065  -0.000043   0.000056  -0.001169  -0.043814
    28  H    0.000914   0.000169  -0.000012   0.000032   0.000031  -0.043352
              25         26         27         28
     1  C    0.000005   0.326228  -0.040285  -0.045139
     2  H    0.000213  -0.039856  -0.002144   0.004291
     3  H    0.001003  -0.044597   0.004202  -0.002605
     4  C   -0.000155  -0.057355  -0.001437  -0.001851
     5  C    0.000010  -0.000187   0.000317  -0.000392
     6  H   -0.000000  -0.000097  -0.000010  -0.000025
     7  H   -0.000002   0.000027   0.000012   0.000093
     8  H    0.000012   0.000810  -0.000009  -0.000187
     9  C   -0.000002  -0.004366   0.001215   0.000514
    10  H   -0.000000  -0.000116  -0.000044   0.000004
    11  C    0.000000   0.000690   0.000070  -0.000030
    12  H   -0.000001  -0.000212  -0.000251  -0.000008
    13  H    0.000000  -0.000050   0.000023  -0.000000
    14  H    0.000000   0.000091  -0.000079   0.000000
    15  C   -0.006749   0.003153   0.000071  -0.000102
    16  H    0.000150  -0.000124   0.000004   0.000012
    17  H    0.000235  -0.000086  -0.000004  -0.000002
    18  H    0.002177   0.000146   0.000006  -0.000011
    19  C   -0.036137  -0.048269   0.000823   0.000914
    20  C    0.003365  -0.007534  -0.002065   0.000169
    21  H   -0.000110   0.000286  -0.000043  -0.000012
    22  H   -0.000126   0.000188   0.000056   0.000032
    23  H    0.000059  -0.001943  -0.001169   0.000031
    24  C    0.402011   0.339924  -0.043814  -0.043352
    25  H    0.558523  -0.041272   0.003231  -0.003487
    26  C   -0.041272   4.982296   0.414880   0.413781
    27  H    0.003231   0.414880   0.571212  -0.029601
    28  H   -0.003487   0.413781  -0.029601   0.588492
 Mulliken charges:
               1
     1  C   -0.234025
     2  H    0.126392
     3  H    0.115652
     4  C    0.015501
     5  C   -0.339897
     6  H    0.116737
     7  H    0.115829
     8  H    0.115152
     9  C   -0.155205
    10  H    0.116520
    11  C   -0.355597
    12  H    0.116946
    13  H    0.121564
    14  H    0.118224
    15  C   -0.341755
    16  H    0.116065
    17  H    0.115425
    18  H    0.118422
    19  C    0.022810
    20  C   -0.350820
    21  H    0.118874
    22  H    0.122688
    23  H    0.120981
    24  C   -0.160396
    25  H    0.117048
    26  C   -0.236437
    27  H    0.124832
    28  H    0.118470
 Sum of Mulliken charges =  -0.00000
 Mulliken charges with hydrogens summed into heavy atoms:
               1
     1  C    0.008019
     4  C    0.015501
     5  C    0.007822
     9  C   -0.038685
    11  C    0.001137
    15  C    0.008156
    19  C    0.022810
    20  C    0.011723
    24  C   -0.043348
    26  C    0.006866
 Electronic spatial extent (au):  <R**2>=           2423.6551
 Charge=              0.0000 electrons
 Dipole moment (field-independent basis, Debye):
    X=             -0.2949    Y=              0.1262    Z=             -0.0059  Tot=              0.3208
 Quadrupole moment (field-independent basis, Debye-Ang):
   XX=            -64.5123   YY=            -63.6033   ZZ=            -67.0539
   XY=             -0.6106   XZ=             -0.8627   YZ=             -0.4853
 Traceless Quadrupole moment (field-independent basis, Debye-Ang):
   XX=              0.5442   YY=              1.4532   ZZ=             -1.9974
   XY=             -0.6106   XZ=             -0.8627   YZ=             -0.4853
 Octapole moment (field-independent basis, Debye-Ang**2):
  XXX=             -1.3680  YYY=             -2.7205  ZZZ=              0.1852  XYY=              0.5694
  XXY=              4.5367  XXZ=             -2.6496  XZZ=             -1.5761  YZZ=              1.2277
  YYZ=              1.3708  XYZ=              0.7509
 Hexadecapole moment (field-independent basis, Debye-Ang**3):
 XXXX=          -2492.2917 YYYY=           -696.1238 ZZZZ=           -174.8233 XXXY=              2.3534
 XXXZ=            -11.9405 YYYX=              9.3538 YYYZ=             -3.0501 ZZZX=              0.8347
 ZZZY=             -0.0638 XXYY=           -530.4701 XXZZ=           -456.3112 YYZZ=           -139.1734
 XXYZ=             -4.2406 YYXZ=             -3.1949 ZZXY=             -4.6985
 N-N= 5.164348896269D+02 E-N=-1.937503751436D+03  KE= 3.886260896021D+02
 No NMR shielding tensors so no spin-rotation constants.
 Leave Link  601 at Fri Sep 17 14:18:44 2021, MaxMem=   524288000 cpu:               0.2 elap:               0.2
 (Enter /opt/gaussian/g16_legacy/l701.exe)
 ... and contract with generalized density number  2.
 Compute integral first derivatives.
 Leave Link  701 at Fri Sep 17 14:18:44 2021, MaxMem=   524288000 cpu:               0.2 elap:               0.2
 (Enter /opt/gaussian/g16_legacy/l702.exe)
 L702 exits ... SP integral derivatives will be done elsewhere.
 Leave Link  702 at Fri Sep 17 14:18:44 2021, MaxMem=   524288000 cpu:               0.0 elap:               0.0
 (Enter /opt/gaussian/g16_legacy/l703.exe)
 Integral derivatives from FoFJK, PRISM(SPDF).
 Compute integral first derivatives, UseDBF=F ICtDFT=           0.
 Calling FoFJK, ICntrl=  10002127 FMM=F ISym2X=0 I1Cent= 0 IOpClX= 0 NMat=1 NMatS=1 NMatT=0.
 FoFJK:  IHMeth= 1 ICntrl=10002127 DoSepK=F KAlg= 0 I1Cent=           0 FoldK=F
 IRaf=         0 NMat=       1 IRICut=       1 DoRegI=T DoRafI=F ISym2E= 0 IDoP0=0 IntGTp=1.
 FoFCou: FMM=F IPFlag=           0 FMFlag=      100000 FMFlg1=         800
         NFxFlg=           0 DoJE=F BraDBF=F KetDBF=F FulRan=T
         wScrn=  0.000000 ICntrl=  10002127 IOpCl=  0 I1Cent=           0 NGrid=           0
         NMat0=    1 NMatS0=      1 NMatT0=    0 NMatD0=    1 NMtDS0=    0 NMtDT0=    0
 Symmetry not used in FoFCou.
 Leave Link  703 at Fri Sep 17 14:19:04 2021, MaxMem=   524288000 cpu:              19.2 elap:              19.3
 (Enter /opt/gaussian/g16_legacy/l716.exe)
 Dipole        =-9.11232227D-02 6.69012624D-02-4.79359441D-03
 ***** Axes restored to original set *****
 -------------------------------------------------------------------
 Center     Atomic                   Forces (Hartrees/Bohr)
 Number     Number              X              Y              Z
 -------------------------------------------------------------------
      1        6           0.005209541    0.002406159    0.007615905
      2        1           0.001573055    0.000377055   -0.004384474
      3        1           0.001587241    0.001828288   -0.002948727
      4        6           0.001507607   -0.003603609    0.005123870
      5        6           0.003150260    0.000413648    0.000402315
      6        1          -0.003708059    0.001595094   -0.000697167
      7        1           0.000224441    0.000520658   -0.003332133
      8        1          -0.000855379   -0.002297141    0.002333873
      9        6          -0.000640676   -0.000760493   -0.003626855
     10        1          -0.002160729   -0.002255891   -0.001697393
     11        6          -0.001621472    0.002075730   -0.000141903
     12        1           0.002301145   -0.002061942    0.001222401
     13        1          -0.000335575    0.002875448   -0.001833279
     14        1          -0.001669568   -0.000699271    0.002987178
     15        6          -0.000558517   -0.003345105    0.000127417
     16        1          -0.001365644    0.000452471    0.003043838
     17        1          -0.000241782    0.001099973   -0.003321489
     18        1           0.002660908    0.003334601    0.000778052
     19        6          -0.001234991   -0.004714516    0.002248025
     20        6           0.004238117    0.000837316    0.001279660
     21        1           0.000020463   -0.000363368   -0.003647425
     22        1          -0.001143443    0.000841865    0.002812101
     23        1          -0.002046407   -0.001865697   -0.001999264
     24        6           0.003434286   -0.000185444   -0.003964685
     25        1          -0.001823717    0.002857887    0.000516509
     26        6          -0.005490605    0.001538068   -0.005513851
     27        1          -0.001462545   -0.001665737    0.003350405
     28        1           0.000452046    0.000763953    0.003267093
 -------------------------------------------------------------------
 Cartesian Forces:  Max     0.007615905 RMS     0.002571349
 Leave Link  716 at Fri Sep 17 14:19:04 2021, MaxMem=   524288000 cpu:               0.0 elap:               0.0
 (Enter /opt/gaussian/g16_legacy/l103.exe)

 GradGradGradGradGradGradGradGradGradGradGradGradGradGradGradGradGradGrad
 Berny optimization.
 FormGI is forming the generalized inverse of G from B-inverse, IUseBI=4.
 Internal  Forces:  Max     0.004892079 RMS     0.001915677
 Search for a local minimum.
 Step number   1 out of a maximum of  138
 All quantities printed in internal units (Hartrees-Bohrs-Radians)
 RMS Force = .19157D-02 SwitMx=.10000D-02 MixMth= 1
 Mixed Optimization -- RFO/linear search
 Second derivative matrix not updated -- first step.
 ITU=  0
     Eigenvalues ---    0.00343   0.00569   0.00670   0.00679   0.00693
     Eigenvalues ---    0.00715   0.00816   0.01219   0.01287   0.01569
     Eigenvalues ---    0.01640   0.02780   0.02785   0.04018   0.04138
     Eigenvalues ---    0.05349   0.05399   0.06978   0.07034   0.07091
     Eigenvalues ---    0.07092   0.07269   0.07300   0.07348   0.07504
     Eigenvalues ---    0.09277   0.09361   0.12767   0.12843   0.15999
     Eigenvalues ---    0.15999   0.16000   0.16000   0.16000   0.16000
     Eigenvalues ---    0.16000   0.16000   0.16000   0.16000   0.16000
     Eigenvalues ---    0.16000   0.16000   0.16000   0.21859   0.21866
     Eigenvalues ---    0.22000   0.22000   0.24994   0.24997   0.24998
     Eigenvalues ---    0.24999   0.29242   0.30863   0.31632   0.31700
     Eigenvalues ---    0.31803   0.31976   0.32781   0.33865   0.33975
     Eigenvalues ---    0.34065   0.34193   0.34222   0.34231   0.34247
     Eigenvalues ---    0.34251   0.34251   0.34253   0.34255   0.34262
     Eigenvalues ---    0.34294   0.34340   0.34558   0.34563   0.34795
     Eigenvalues ---    0.34854   0.55498   0.55580
 RFO step:  Lambda=-2.95863593D-03 EMin= 3.42973275D-03
 Linear search not attempted -- first point.
 Iteration  1 RMS(Cart)=  0.03971564 RMS(Int)=  0.00072405
 Iteration  2 RMS(Cart)=  0.00093581 RMS(Int)=  0.00016627
 Iteration  3 RMS(Cart)=  0.00000043 RMS(Int)=  0.00016627
 ITry= 1 IFail=0 DXMaxC= 1.75D-01 DCOld= 1.00D+10 DXMaxT= 3.00D-01 DXLimC= 3.00D+00 Rises=F
 Variable       Old X    -DE/DX   Delta X   Delta X   Delta X     New X
                                 (Linear)    (Quad)   (Total)
    R1        2.07221  -0.00330   0.00000  -0.00961  -0.00961   2.06260
    R2        2.07558  -0.00279   0.00000  -0.00817  -0.00817   2.06742
    R3        2.86274  -0.00357   0.00000  -0.01145  -0.01145   2.85130
    R4        2.89501   0.00174   0.00000   0.00588   0.00588   2.90089
    R5        2.84823  -0.00046   0.00000  -0.00143  -0.00143   2.84680
    R6        2.54692  -0.00397   0.00000  -0.00711  -0.00711   2.53981
    R7        2.06957  -0.00371   0.00000  -0.01074  -0.01074   2.05883
    R8        2.06908  -0.00215   0.00000  -0.00623  -0.00623   2.06285
    R9        2.06836  -0.00181   0.00000  -0.00522  -0.00522   2.06314
   R10        2.05912  -0.00218   0.00000  -0.00620  -0.00620   2.05292
   R11        2.82738   0.00303   0.00000   0.00915   0.00915   2.83653
   R12        2.06390  -0.00285   0.00000  -0.00818  -0.00818   2.05572
   R13        2.06759  -0.00155   0.00000  -0.00447  -0.00447   2.06312
   R14        2.06905  -0.00264   0.00000  -0.00764  -0.00764   2.06140
   R15        2.06915  -0.00200   0.00000  -0.00579  -0.00579   2.06337
   R16        2.06902  -0.00196   0.00000  -0.00567  -0.00567   2.06335
   R17        2.06942  -0.00394   0.00000  -0.01142  -0.01142   2.05800
   R18        2.84696  -0.00081   0.00000  -0.00253  -0.00253   2.84443
   R19        2.84188  -0.00046   0.00000  -0.00142  -0.00142   2.84046
   R20        2.54620  -0.00322   0.00000  -0.00576  -0.00576   2.54043
   R21        2.07005  -0.00265   0.00000  -0.00767  -0.00767   2.06238
   R22        2.06891  -0.00188   0.00000  -0.00545  -0.00545   2.06346
   R23        2.06398  -0.00278   0.00000  -0.00796  -0.00796   2.05602
   R24        2.06010  -0.00199   0.00000  -0.00568  -0.00568   2.05441
   R25        2.84505  -0.00150   0.00000  -0.00467  -0.00467   2.84038
   R26        2.06908  -0.00275   0.00000  -0.00795  -0.00795   2.06113
   R27        2.07372  -0.00236   0.00000  -0.00689  -0.00689   2.06683
    A1        1.82995   0.00207   0.00000   0.02245   0.02229   1.85223
    A2        1.93008   0.00043   0.00000   0.00931   0.00934   1.93942
    A3        1.91837  -0.00277   0.00000  -0.02019  -0.02023   1.89814
    A4        1.90261  -0.00069   0.00000  -0.00271  -0.00271   1.89990
    A5        1.92009  -0.00195   0.00000  -0.01727  -0.01730   1.90278
    A6        1.95839   0.00283   0.00000   0.00909   0.00913   1.96752
    A7        2.00824   0.00238   0.00000   0.00973   0.00916   2.01741
    A8        2.17074  -0.00489   0.00000  -0.01898  -0.01951   2.15123
    A9        2.10402   0.00252   0.00000   0.01035   0.00978   2.11380
   A10        1.95916  -0.00261   0.00000  -0.01299  -0.01295   1.94621
   A11        1.92480   0.00166   0.00000   0.00901   0.00903   1.93383
   A12        1.92809   0.00227   0.00000   0.01211   0.01214   1.94023
   A13        1.87755   0.00109   0.00000   0.01020   0.01023   1.88778
   A14        1.87708   0.00054   0.00000   0.00557   0.00561   1.88269
   A15        1.89500  -0.00307   0.00000  -0.02475  -0.02474   1.87026
   A16        2.06980  -0.00195   0.00000  -0.01344  -0.01346   2.05634
   A17        2.22506  -0.00187   0.00000  -0.00835  -0.00837   2.21669
   A18        1.98819   0.00382   0.00000   0.02196   0.02195   2.01013
   A19        1.98125  -0.00300   0.00000  -0.01845  -0.01837   1.96289
   A20        1.91721   0.00395   0.00000   0.02330   0.02327   1.94048
   A21        1.90995   0.00238   0.00000   0.01562   0.01557   1.92552
   A22        1.89295  -0.00095   0.00000  -0.00765  -0.00755   1.88540
   A23        1.87266   0.00053   0.00000   0.00497   0.00504   1.87770
   A24        1.88719  -0.00310   0.00000  -0.01887  -0.01904   1.86814
   A25        1.89489  -0.00313   0.00000  -0.02542  -0.02541   1.86948
   A26        1.87875   0.00092   0.00000   0.00798   0.00802   1.88677
   A27        1.92337   0.00175   0.00000   0.00883   0.00885   1.93223
   A28        1.87927   0.00092   0.00000   0.00931   0.00935   1.88863
   A29        1.92501   0.00219   0.00000   0.01225   0.01228   1.93729
   A30        1.96054  -0.00276   0.00000  -0.01380  -0.01376   1.94678
   A31        1.99471   0.00146   0.00000   0.00579   0.00577   2.00048
   A32        2.10578   0.00183   0.00000   0.00727   0.00725   2.11303
   A33        2.18264  -0.00328   0.00000  -0.01294  -0.01297   2.16967
   A34        1.92082  -0.00000   0.00000  -0.00090  -0.00088   1.91994
   A35        1.92155   0.00231   0.00000   0.01175   0.01177   1.93332
   A36        1.97980  -0.00223   0.00000  -0.01027  -0.01025   1.96956
   A37        1.89056  -0.00240   0.00000  -0.02155  -0.02153   1.86903
   A38        1.86372   0.00200   0.00000   0.01697   0.01698   1.88070
   A39        1.88447   0.00023   0.00000   0.00323   0.00325   1.88773
   A40        2.06716  -0.00168   0.00000  -0.01183  -0.01223   2.05493
   A41        2.22711  -0.00225   0.00000  -0.00991  -0.01033   2.21679
   A42        1.98878   0.00394   0.00000   0.02254   0.02212   2.01090
   A43        1.94445   0.00331   0.00000   0.01368   0.01371   1.95816
   A44        1.92612  -0.00265   0.00000  -0.02500  -0.02506   1.90105
   A45        1.92086  -0.00239   0.00000  -0.01473  -0.01492   1.90593
   A46        1.94659  -0.00053   0.00000  -0.00243  -0.00238   1.94421
   A47        1.88060   0.00060   0.00000   0.01708   0.01712   1.89772
   A48        1.84189   0.00155   0.00000   0.01191   0.01165   1.85354
    D1        2.64267   0.00174   0.00000   0.05213   0.05192   2.69459
    D2       -0.47849   0.00076   0.00000  -0.01008  -0.00985  -0.48834
    D3        0.63960  -0.00059   0.00000   0.02154   0.02129   0.66089
    D4       -2.48157  -0.00157   0.00000  -0.04068  -0.04048  -2.52205
[...]
                 (A) (A) (A) (A) (A) (A) (A) (A) (A) (A) (A) (A)
                 (A) (A) (A) (A) (A) (A) (A) (A) (A) (A) (A) (A)
                 (A) (A) (A) (A) (A) (A) (A) (A) (A) (A) (A) (A)
                 (A) (A) (A) (A) (A) (A) (A) (A) (A) (A) (A) (A)
                 (A) (A) (A) (A) (A) (A) (A) (A) (A) (A) (A) (A)
                 (A) (A) (A) (A) (A) (A) (A) (A) (A) (A) (A) (A)
                 (A) (A) (A) (A) (A) (A) (A) (A) (A) (A) (A) (A)
                 (A) (A) (A) (A) (A) (A) (A) (A) (A) (A) (A) (A)
                 (A) (A) (A) (A) (A) (A) (A) (A) (A) (A) (A) (A)
                 (A) (A) (A) (A) (A) (A) (A) (A) (A) (A) (A) (A)
                 (A) (A) (A) (A) (A) (A) (A) (A) (A) (A) (A) (A)
                 (A) (A) (A) (A) (A) (A) (A) (A) (A) (A) (A) (A)
                 (A) (A) (A) (A) (A) (A) (A) (A) (A) (A) (A) (A)
                 (A) (A) (A) (A) (A) (A) (A) (A) (A) (A) (A) (A)
                 (A) (A) (A) (A) (A) (A) (A) (A) (A)
 The electronic state is 1-A.
 Alpha  occ. eigenvalues --  -11.23020 -11.22460 -11.21868 -11.21730 -11.21712
 Alpha  occ. eigenvalues --  -11.21539 -11.21506 -11.21436 -11.21417 -11.21348
 Alpha  occ. eigenvalues --   -1.10821  -1.08492  -1.01823  -0.98143  -0.93838
 Alpha  occ. eigenvalues --   -0.91939  -0.86963  -0.82855  -0.70494  -0.69519
 Alpha  occ. eigenvalues --   -0.64988  -0.61512  -0.60591  -0.58878  -0.58366
 Alpha  occ. eigenvalues --   -0.56774  -0.55298  -0.54966  -0.53295  -0.52261
 Alpha  occ. eigenvalues --   -0.51859  -0.51173  -0.50832  -0.49581  -0.48519
 Alpha  occ. eigenvalues --   -0.46073  -0.44624  -0.33371  -0.31514
 Alpha virt. eigenvalues --    0.18142   0.19779   0.22152   0.24486   0.25192
 Alpha virt. eigenvalues --    0.27439   0.28535   0.28922   0.30318   0.30811
 Alpha virt. eigenvalues --    0.31477   0.32261   0.33202   0.33794   0.34383
 Alpha virt. eigenvalues --    0.35458   0.36114   0.36962   0.39185   0.40602
 Alpha virt. eigenvalues --    0.41328   0.42631   0.43685   0.44252   0.45395
 Alpha virt. eigenvalues --    0.51702   0.54378   0.61070   0.62576   0.70520
 Alpha virt. eigenvalues --    0.71073   0.72196   0.73768   0.76075   0.76177
 Alpha virt. eigenvalues --    0.76620   0.79010   0.79474   0.81070   0.82306
 Alpha virt. eigenvalues --    0.83713   0.85579   0.89117   0.91091   0.91343
 Alpha virt. eigenvalues --    0.92820   0.94745   0.97065   0.98284   0.98818
 Alpha virt. eigenvalues --    0.99710   1.00468   1.01911   1.03844   1.06577
 Alpha virt. eigenvalues --    1.08019   1.08221   1.09393   1.11664   1.12687
 Alpha virt. eigenvalues --    1.13026   1.13870   1.14856   1.15402   1.16045
 Alpha virt. eigenvalues --    1.16257   1.16619   1.18722   1.19116   1.20671
 Alpha virt. eigenvalues --    1.20953   1.23032   1.23885   1.25765   1.28153
 Alpha virt. eigenvalues --    1.34331   1.41722   1.42153   1.44890   1.46395
 Alpha virt. eigenvalues --    1.48456   1.54135   1.55360   1.57256   1.58165
 Alpha virt. eigenvalues --    1.61459   1.63397   1.66485   1.69046   1.69645
 Alpha virt. eigenvalues --    1.73917   1.82243   1.91111   1.93363   1.96231
 Alpha virt. eigenvalues --    1.98688   2.01467   2.02277   2.03941   2.08565
 Alpha virt. eigenvalues --    2.09706   2.10748   2.11744   2.13037   2.14903
 Alpha virt. eigenvalues --    2.15780   2.16940   2.19854   2.23666   2.28347
 Alpha virt. eigenvalues --    2.29590   2.30325   2.33235   2.35347   2.35688
 Alpha virt. eigenvalues --    2.35978   2.36098   2.38923   2.40264   2.41259
 Alpha virt. eigenvalues --    2.42195   2.43169   2.44154   2.45371   2.46084
 Alpha virt. eigenvalues --    2.47201   2.49167   2.49622   2.51174   2.54099
 Alpha virt. eigenvalues --    2.57315   2.58365   2.61887   2.63241   2.64107
 Alpha virt. eigenvalues --    2.67127   2.68175   2.71776   2.73352   2.73474
 Alpha virt. eigenvalues --    2.75815   2.77410   2.80796   2.82635   2.85354
 Alpha virt. eigenvalues --    2.87136   2.89441   2.92178   2.93739   2.94867
 Alpha virt. eigenvalues --    2.97869   2.99094   3.00960   3.02677   3.05807
 Alpha virt. eigenvalues --    3.06402   3.07703   3.09315   3.13762   3.17093
 Alpha virt. eigenvalues --    3.17589   3.19238   3.20046   3.21242   3.22334
 Alpha virt. eigenvalues --    3.24167   3.25050   3.26607   3.27420   3.37866
 Alpha virt. eigenvalues --    3.40355   3.46023   3.46902   3.56200   3.58183
 Alpha virt. eigenvalues --    3.59499   3.62406   3.67928   3.75494   3.78622
 Alpha virt. eigenvalues --    3.80005   3.81570   3.82569   3.83286   3.83898
 Alpha virt. eigenvalues --    3.84750   3.86481   3.87645   3.89820   3.91558
 Alpha virt. eigenvalues --    3.97645   4.59389   4.63170   4.74472   4.82572
 Alpha virt. eigenvalues --    4.88928   4.92582   4.93409   5.07840   5.10766
 Alpha virt. eigenvalues --    5.17766
          Condensed to atoms (all electrons):
               1          2          3          4          5          6
     1  C    5.004768   0.411714   0.414473   0.337355  -0.056085   0.003801
     2  H    0.411714   0.572983  -0.028296  -0.038988   0.003071  -0.000108
     3  H    0.414473  -0.028296   0.587507  -0.046308  -0.004587   0.000106
     4  C    0.337355  -0.038988  -0.046308   4.952603   0.351934  -0.042765
     5  C   -0.056085   0.003071  -0.004587   0.351934   4.891804   0.407087
     6  H    0.003801  -0.000108   0.000106  -0.042765   0.407087   0.568858
     7  H   -0.003698  -0.000034   0.002378  -0.041506   0.397495  -0.026764
     8  H    0.000011  -0.000005  -0.000489  -0.045679   0.400946  -0.027466
     9  C   -0.047991  -0.001860   0.002531   0.697840  -0.046054  -0.002890
    10  H    0.003272   0.000031  -0.000118  -0.037842  -0.006525   0.002385
    11  C   -0.007749  -0.002811   0.000160  -0.050271   0.003364   0.000132
    12  H   -0.001745  -0.001657   0.000030  -0.000691   0.000109   0.000005
    13  H    0.000152   0.000184   0.000017  -0.000627  -0.000106  -0.000006
    14  H    0.000310  -0.000067  -0.000013  -0.000247  -0.000095  -0.000006
    15  C   -0.000099  -0.000043  -0.000004   0.000001  -0.000000   0.000000
    16  H   -0.000005   0.000002   0.000000   0.000000  -0.000000   0.000000
    17  H    0.000024  -0.000007  -0.000002  -0.000000   0.000000  -0.000000
    18  H   -0.000003  -0.000002   0.000003   0.000000  -0.000000   0.000000
    19  C   -0.004325   0.001387   0.000787   0.000041  -0.000003   0.000000
    20  C    0.000587   0.000200  -0.000015  -0.000018  -0.000000  -0.000000
    21  H    0.000130  -0.000135  -0.000002  -0.000005   0.000000  -0.000000
    22  H   -0.000040   0.000022   0.000000   0.000001  -0.000000   0.000000
    23  H   -0.000302  -0.000131  -0.000016  -0.000011  -0.000000   0.000000
    24  C   -0.061827  -0.000504  -0.000900   0.006443  -0.000149   0.000004
    25  H    0.000175   0.000111   0.001011  -0.000152   0.000010  -0.000000
    26  C    0.332330  -0.041801  -0.046074  -0.055544  -0.000661  -0.000109
    27  H   -0.042369  -0.003118   0.004477  -0.001813   0.000243  -0.000005
    28  H   -0.046841   0.004515  -0.001931  -0.002075  -0.000289  -0.000050
               7          8          9         10         11         12
     1  C   -0.003698   0.000011  -0.047991   0.003272  -0.007749  -0.001745
     2  H   -0.000034  -0.000005  -0.001860   0.000031  -0.002811  -0.001657
     3  H    0.002378  -0.000489   0.002531  -0.000118   0.000160   0.000030
     4  C   -0.041506  -0.045679   0.697840  -0.037842  -0.050271  -0.000691
     5  C    0.397495   0.400946  -0.046054  -0.006525   0.003364   0.000109
     6  H   -0.026764  -0.027466  -0.002890   0.002385   0.000132   0.000005
     7  H    0.591921  -0.037541  -0.000373   0.000216  -0.000105   0.000002
     8  H   -0.037541   0.596034  -0.001011   0.000135  -0.000101  -0.000003
     9  C   -0.000373  -0.001011   4.938971   0.404494   0.340494  -0.043903
    10  H    0.000216   0.000135   0.404494   0.558671  -0.041278   0.003299
    11  C   -0.000105  -0.000101   0.340494  -0.041278   4.900974   0.409079
    12  H    0.000002  -0.000003  -0.043903   0.003299   0.409079   0.577163
    13  H    0.000017  -0.000004  -0.041523  -0.001122   0.401144  -0.027132
    14  H   -0.000004   0.000017  -0.041805  -0.001264   0.402169  -0.029956
    15  C   -0.000000  -0.000000  -0.000000   0.000000  -0.000000   0.000000
    16  H    0.000000   0.000000   0.000000   0.000000   0.000000  -0.000000
    17  H   -0.000000   0.000000   0.000000  -0.000000  -0.000000  -0.000000
    18  H   -0.000000  -0.000000  -0.000000   0.000000   0.000000  -0.000000
    19  C    0.000000   0.000000  -0.000001   0.000000   0.000013  -0.000026
    20  C    0.000000  -0.000000   0.000015  -0.000000  -0.000147  -0.000000
    21  H   -0.000000   0.000000   0.000000  -0.000000  -0.000009   0.000079
    22  H    0.000000  -0.000000   0.000000   0.000000   0.000003  -0.000008
    23  H   -0.000000   0.000000  -0.000045   0.000000   0.000074   0.000412
    24  C    0.000004  -0.000111   0.000114   0.000002  -0.000031   0.000026
    25  H   -0.000001   0.000015  -0.000002  -0.000000   0.000000  -0.000002
    26  C    0.000086   0.000609  -0.004911  -0.000113   0.000577  -0.000737
    27  H    0.000006  -0.000015   0.001406  -0.000046  -0.000082  -0.000475
    28  H    0.000058   0.000197   0.000760   0.000001  -0.000033  -0.000010
              13         14         15         16         17         18
     1  C    0.000152   0.000310  -0.000099  -0.000005   0.000024  -0.000003
     2  H    0.000184  -0.000067  -0.000043   0.000002  -0.000007  -0.000002
     3  H    0.000017  -0.000013  -0.000004   0.000000  -0.000002   0.000003
     4  C   -0.000627  -0.000247   0.000001   0.000000  -0.000000   0.000000
     5  C   -0.000106  -0.000095  -0.000000  -0.000000   0.000000  -0.000000
     6  H   -0.000006  -0.000006   0.000000   0.000000  -0.000000   0.000000
     7  H    0.000017  -0.000004  -0.000000   0.000000  -0.000000  -0.000000
     8  H   -0.000004   0.000017  -0.000000   0.000000   0.000000  -0.000000
     9  C   -0.041523  -0.041805  -0.000000   0.000000   0.000000  -0.000000
    10  H   -0.001122  -0.001264   0.000000   0.000000  -0.000000   0.000000
    11  C    0.401144   0.402169  -0.000000   0.000000  -0.000000   0.000000
    12  H   -0.027132  -0.029956   0.000000  -0.000000  -0.000000  -0.000000
    13  H    0.583648  -0.035462   0.000000   0.000000  -0.000000  -0.000000
    14  H   -0.035462   0.586720  -0.000000  -0.000000   0.000000  -0.000000
    15  C    0.000000  -0.000000   4.900112   0.398811   0.398238   0.406218
    16  H    0.000000  -0.000000   0.398811   0.593607  -0.037806  -0.026549
    17  H   -0.000000   0.000000   0.398238  -0.037806   0.594542  -0.026703
    18  H   -0.000000  -0.000000   0.406218  -0.026549  -0.026703   0.566018
    19  C   -0.000000   0.000001   0.353753  -0.044274  -0.043899  -0.041639
    20  C    0.000004  -0.000015  -0.064931  -0.001201  -0.001975   0.003785
    21  H   -0.000000   0.000000  -0.002632  -0.000476   0.002756  -0.000032
    22  H    0.000000  -0.000000  -0.002223   0.002766  -0.000456  -0.000053
    23  H   -0.000013   0.000114   0.003725  -0.000031  -0.000068  -0.000113
    24  C    0.000002  -0.000009  -0.044415  -0.001270  -0.000422  -0.002632
    25  H    0.000000   0.000000  -0.006963   0.000187   0.000182   0.002335
    26  C   -0.000037   0.000163   0.003126  -0.000131  -0.000068   0.000148
    27  H    0.000037  -0.000140   0.000051   0.000007  -0.000005   0.000007
    28  H   -0.000000  -0.000000  -0.000094   0.000009  -0.000002  -0.000010
              19         20         21         22         23         24
     1  C   -0.004325   0.000587   0.000130  -0.000040  -0.000302  -0.061827
     2  H    0.001387   0.000200  -0.000135   0.000022  -0.000131  -0.000504
     3  H    0.000787  -0.000015  -0.000002   0.000000  -0.000016  -0.000900
     4  C    0.000041  -0.000018  -0.000005   0.000001  -0.000011   0.006443
     5  C   -0.000003  -0.000000   0.000000  -0.000000  -0.000000  -0.000149
     6  H    0.000000  -0.000000  -0.000000   0.000000   0.000000   0.000004
     7  H    0.000000   0.000000  -0.000000   0.000000  -0.000000   0.000004
     8  H    0.000000  -0.000000   0.000000  -0.000000   0.000000  -0.000111
     9  C   -0.000001   0.000015   0.000000   0.000000  -0.000045   0.000114
    10  H    0.000000  -0.000000  -0.000000   0.000000   0.000000   0.000002
    11  C    0.000013  -0.000147  -0.000009   0.000003   0.000074  -0.000031
    12  H   -0.000026  -0.000000   0.000079  -0.000008   0.000412   0.000026
    13  H   -0.000000   0.000004  -0.000000   0.000000  -0.000013   0.000002
    14  H    0.000001  -0.000015   0.000000  -0.000000   0.000114  -0.000009
    15  C    0.353753  -0.064931  -0.002632  -0.002223   0.003725  -0.044415
    16  H   -0.044274  -0.001201  -0.000476   0.002766  -0.000031  -0.001270
    17  H   -0.043899  -0.001975   0.002756  -0.000456  -0.000068  -0.000422
    18  H   -0.041639   0.003785  -0.000032  -0.000053  -0.000113  -0.002632
    19  C    4.914192   0.350332  -0.043385  -0.043537  -0.037848   0.697734
    20  C    0.350332   4.907254   0.401208   0.399852   0.407154  -0.044248
    21  H   -0.043385   0.401208   0.587442  -0.035759  -0.028659  -0.000031
    22  H   -0.043537   0.399852  -0.035759   0.584669  -0.026060  -0.000365
    23  H   -0.037848   0.407154  -0.028659  -0.026060   0.568221  -0.003253
    24  C    0.697734  -0.044248  -0.000031  -0.000365  -0.003253   4.962746
    25  H   -0.038449   0.003528  -0.000121  -0.000121   0.000061   0.403391
    26  C   -0.050099  -0.008144   0.000367   0.000117  -0.002069   0.338699
    27  H    0.000438  -0.002693  -0.000076   0.000113  -0.001675  -0.044060
    28  H    0.001583   0.000195  -0.000014   0.000021   0.000058  -0.041395
              25         26         27         28
     1  C    0.000175   0.332330  -0.042369  -0.046841
     2  H    0.000111  -0.041801  -0.003118   0.004515
     3  H    0.001011  -0.046074   0.004477  -0.001931
     4  C   -0.000152  -0.055544  -0.001813  -0.002075
     5  C    0.000010  -0.000661   0.000243  -0.000289
     6  H   -0.000000  -0.000109  -0.000005  -0.000050
     7  H   -0.000001   0.000086   0.000006   0.000058
     8  H    0.000015   0.000609  -0.000015   0.000197
     9  C   -0.000002  -0.004911   0.001406   0.000760
    10  H   -0.000000  -0.000113  -0.000046   0.000001
    11  C    0.000000   0.000577  -0.000082  -0.000033
    12  H   -0.000002  -0.000737  -0.000475  -0.000010
    13  H    0.000000  -0.000037   0.000037  -0.000000
    14  H    0.000000   0.000163  -0.000140  -0.000000
    15  C   -0.006963   0.003126   0.000051  -0.000094
    16  H    0.000187  -0.000131   0.000007   0.000009
    17  H    0.000182  -0.000068  -0.000005  -0.000002
    18  H    0.002335   0.000148   0.000007  -0.000010
    19  C   -0.038449  -0.050099   0.000438   0.001583
    20  C    0.003528  -0.008144  -0.002693   0.000195
    21  H   -0.000121   0.000367  -0.000076  -0.000014
    22  H   -0.000121   0.000117   0.000113   0.000021
    23  H    0.000061  -0.002069  -0.001675   0.000058
    24  C    0.403391   0.338699  -0.044060  -0.041395
    25  H    0.557389  -0.039114   0.003152  -0.003424
    26  C   -0.039114   4.979543   0.415850   0.413482
    27  H    0.003152   0.415850   0.575347  -0.028362
    28  H   -0.003424   0.413482  -0.028362   0.585267
 Mulliken charges:
               1
     1  C   -0.236021
     2  H    0.125346
     3  H    0.115272
     4  C    0.018322
     5  C   -0.341505
     6  H    0.117792
     7  H    0.117845
     8  H    0.114461
     9  C   -0.154256
    10  H    0.115801
    11  C   -0.355567
    12  H    0.116140
    13  H    0.120829
    14  H    0.119588
    15  C   -0.342631
    16  H    0.116356
    17  H    0.115672
    18  H    0.119222
    19  C    0.027221
    20  C   -0.350727
    21  H    0.119352
    22  H    0.121058
    23  H    0.120474
    24  C   -0.163542
    25  H    0.116803
    26  C   -0.235486
    27  H    0.123802
    28  H    0.118380
 Sum of Mulliken charges =  -0.00000
 Mulliken charges with hydrogens summed into heavy atoms:
               1
     1  C    0.004596
     4  C    0.018322
     5  C    0.008593
     9  C   -0.038454
    11  C    0.000991
    15  C    0.008618
    19  C    0.027221
    20  C    0.010156
    24  C   -0.046739
    26  C    0.006696
 Electronic spatial extent (au):  <R**2>=           2384.0099
 Charge=             -0.0000 electrons
 Dipole moment (field-independent basis, Debye):
    X=             -0.3027    Y=              0.1253    Z=              0.0460  Tot=              0.3308
 Quadrupole moment (field-independent basis, Debye-Ang):
   XX=            -64.3024   YY=            -63.2901   ZZ=            -67.3956
   XY=             -0.7521   XZ=             -1.2367   YZ=             -0.3487
 Traceless Quadrupole moment (field-independent basis, Debye-Ang):
   XX=              0.6937   YY=              1.7059   ZZ=             -2.3996
   XY=             -0.7521   XZ=             -1.2367   YZ=             -0.3487
 Octapole moment (field-independent basis, Debye-Ang**2):
  XXX=             -2.6683  YYY=             -2.9989  ZZZ=              0.8999  XYY=              0.6416
  XXY=              4.0909  XXZ=             -2.0919  XZZ=             -1.2120  YZZ=              1.4955
  YYZ=              0.6111  XYZ=              0.3642
 Hexadecapole moment (field-independent basis, Debye-Ang**3):
 XXXX=          -2435.7222 YYYY=           -693.4917 ZZZZ=           -166.6420 XXXY=             -2.3047
 XXXZ=            -14.7514 YYYX=             11.0525 YYYZ=             -1.4216 ZZZX=             -2.8118
 ZZZY=             -0.6410 XXYY=           -520.1256 XXZZ=           -449.2349 YYZZ=           -138.3649
 XXYZ=             -4.2785 YYXZ=             -0.5786 ZZXY=             -5.9187
 N-N= 5.190878173631D+02 E-N=-1.942888373998D+03  KE= 3.887471639514D+02
 No NMR shielding tensors so no spin-rotation constants.
 Leave Link  601 at Fri Sep 17 14:58:02 2021, MaxMem=   524288000 cpu:               0.2 elap:               0.2
 (Enter /opt/gaussian/g16_legacy/l9999.exe)
 1\1\GINC-TRUENO95\FOpt\RMP2-FC\6-31G(d,p)\C10H18\JRAMOS\17-Sep-2021\0\
 \#p opt mp2/6-31g(d,p)\\Conformer number 2542. Energy MM = 23.242 kcal
 /mol\\0,1\C,0.3820785603,-0.9119801297,0.7122850306\H,-0.1574689972,-0
 .23042,1.3717392333\H,-0.0674188957,-1.8983941432,0.8586648697\C,1.848
 1179436,-0.9738782139,1.0601169597\C,2.5261373235,-2.2872941935,0.7796
 185525\H,3.5952832168,-2.2372480433,0.9819587306\H,2.098008224,-3.0838
 1548,1.3920598695\H,2.3922010486,-2.5821264362,-0.2635555537\C,2.54176
 70075,0.0753725915,1.5395700616\H,3.6015711647,-0.0666608613,1.7324035
 116\C,2.0109165379,1.4437289713,1.8424576843\H,0.9498176922,1.53454247
 42,1.6215341267\H,2.159222669,1.6967031849,2.8940140469\H,2.5378326425
 ,2.1994768054,1.2568718799\C,-3.6193566213,0.3022132718,-1.4680597161\
 H,-3.8971722462,0.9352743648,-2.3138413375\H,-4.2780971368,0.573429277
 3,-0.6399830271\H,-3.8180344729,-0.7339626887,-1.7375498891\C,-2.17714
 77082,0.5095440481,-1.0959080345\C,-1.8229320376,1.9198624675,-0.71328
 92546\H,-2.4453656714,2.2506553944,0.1209696282\H,-2.0186225777,2.6028
 111373,-1.5430261371\H,-0.7822223414,2.0312684093,-0.4195963238\C,-1.3
 025115814,-0.5137751017,-1.120306883\H,-1.6862785543,-1.4936216889,-1.
 3931742547\C,0.1489727533,-0.4686135123,-0.7447562791\H,0.5648314276,0
 .5312507847,-0.875012029\H,0.7158706304,-1.1243426899,-1.4110054657\\V
 ersion=EM64L-G16RevA.03\State=1-A\HF=-389.1567535\MP2=-390.5738646\RMS
 D=5.116e-09\RMSF=3.179e-06\Dipole=-0.0827416,0.0812677,-0.0080496\PG=C
 01 [X(C10H18)]\\@


 I SUPPOSE A BABY LLAMA HAS A MMAMA AND A PPOPA.
     -- RICHARD AMOUR
 Job cpu time:       0 days  0 hours 42 minutes 14.7 seconds.
 Elapsed time:       0 days  0 hours 42 minutes 17.8 seconds.
 File lengths (MBytes):  RWF=     32 Int=      0 D2E=      0 Chk=      7 Scr=      1
 Normal termination of Gaussian 16 at Fri Sep 17 14:58:02 2021.
