 Entering Gaussian System, Link 0=/opt/gaussian/g16_legacy/g16
 Input=01-IsoP_1030_gaussian.com
 Output=01-IsoP_1030_gaussian.log
 Initial command:
 /opt/gaussian/g16_legacy/l1.exe "/scratch-local/jramos/2661322/Gau-2449.inp" -scrdir="/scratch-local/jramos/2661322/"
 Entering Link 1 = /opt/gaussian/g16_legacy/l1.exe PID=      2464.
  
 Copyright (c) 1988,1990,1992,1993,1995,1998,2003,2009,2016,
            Gaussian, Inc.  All Rights Reserved.
  
 This is part of the Gaussian(R) 16 program.  It is based on
 the Gaussian(R) 09 system (copyright 2009, Gaussian, Inc.),
 the Gaussian(R) 03 system (copyright 2003, Gaussian, Inc.),
 the Gaussian(R) 98 system (copyright 1998, Gaussian, Inc.),
 the Gaussian(R) 94 system (copyright 1995, Gaussian, Inc.),
 the Gaussian 92(TM) system (copyright 1992, Gaussian, Inc.),
 the Gaussian 90(TM) system (copyright 1990, Gaussian, Inc.),
 the Gaussian 88(TM) system (copyright 1988, Gaussian, Inc.),
 the Gaussian 86(TM) system (copyright 1986, Carnegie Mellon
 University), and the Gaussian 82(TM) system (copyright 1983,
 Carnegie Mellon University). Gaussian is a federally registered
 trademark of Gaussian, Inc.
  
 This software contains proprietary and confidential information,
 including trade secrets, belonging to Gaussian, Inc.
  
 This software is provided under written license and may be
 used, copied, transmitted, or stored only in accord with that
 written license.
  
 The following legend is applicable only to US Government
 contracts under FAR:
  
                    RESTRICTED RIGHTS LEGEND
  
 Use, reproduction and disclosure by the US Government is
 subject to restrictions as set forth in subparagraphs (a)
 and (c) of the Commercial Computer Software - Restricted
 Rights clause in FAR 52.227-19.
  
 Gaussian, Inc.
 340 Quinnipiac St., Bldg. 40, Wallingford CT 06492
  
  
 ---------------------------------------------------------------
 Warning -- This program may not be used in any manner that
 competes with the business of Gaussian, Inc. or will provide
 assistance to any competitor of Gaussian, Inc.  The licensee
 of this program is prohibited from giving any competitor of
 Gaussian, Inc. access to this program.  By using this program,
 the user acknowledges that Gaussian, Inc. is engaged in the
 business of creating and licensing software in the field of
 computational chemistry and represents and warrants to the
 licensee that it is not a competitor of Gaussian, Inc. and that
 it will not use this program in any manner prohibited above.
 ---------------------------------------------------------------
  

 Cite this work as:
 Gaussian 16, Revision A.03,
 M. J. Frisch, G. W. Trucks, H. B. Schlegel, G. E. Scuseria, 
 M. A. Robb, J. R. Cheeseman, G. Scalmani, V. Barone, 
 G. A. Petersson, H. Nakatsuji, X. Li, M. Caricato, A. V. Marenich, 
 J. Bloino, B. G. Janesko, R. Gomperts, B. Mennucci, H. P. Hratchian, 
 J. V. Ortiz, A. F. Izmaylov, J. L. Sonnenberg, D. Williams-Young, 
 F. Ding, F. Lipparini, F. Egidi, J. Goings, B. Peng, A. Petrone, 
 T. Henderson, D. Ranasinghe, V. G. Zakrzewski, J. Gao, N. Rega, 
 G. Zheng, W. Liang, M. Hada, M. Ehara, K. Toyota, R. Fukuda, 
 J. Hasegawa, M. Ishida, T. Nakajima, Y. Honda, O. Kitao, H. Nakai, 
 T. Vreven, K. Throssell, J. A. Montgomery, Jr., J. E. Peralta, 
 F. Ogliaro, M. J. Bearpark, J. J. Heyd, E. N. Brothers, K. N. Kudin, 
 V. N. Staroverov, T. A. Keith, R. Kobayashi, J. Normand, 
 K. Raghavachari, A. P. Rendell, J. C. Burant, S. S. Iyengar, 
 J. Tomasi, M. Cossi, J. M. Millam, M. Klene, C. Adamo, R. Cammi, 
 J. W. Ochterski, R. L. Martin, K. Morokuma, O. Farkas, 
 J. B. Foresman, and D. J. Fox, Gaussian, Inc., Wallingford CT, 2016.
 
 ******************************************
 Gaussian 16:  EM64L-G16RevA.03 25-Dec-2016
                17-Sep-2021 
 ******************************************
 %chk=01-IsoP_1030_gaussian.chk
 %nproc=1
 Will use up to    1 processors via shared memory.
 %mem=4000Mb
 ---------------------
 #p opt mp2/6-31g(d,p)
 ---------------------
 1/18=20,19=15,38=1/1,3;
 2/9=110,12=2,17=6,18=5,40=1/2;
 3/5=1,6=6,7=101,11=9,25=1,30=1,71=1/1,2,3;
 4//1;
 5/5=2,38=5/2;
 8/6=4,10=2/1;
 9/15=2,16=-3/6;
 10/5=1/2;
 6/7=2,8=2,9=2,10=2/1;
 7/12=2/1,2,3,16;
 1/18=20,19=15/3(2);
 2/9=110/2;
 99//99;
 2/9=110/2;
 3/5=1,6=6,7=101,11=9,25=1,30=1,71=1/1,2,3;
 4/5=5,16=3,69=1/1;
 5/5=2,38=5/2;
 8/6=4,10=2/1;
 9/15=2,16=-3/6;
 10/5=1/2;
 7/12=2/1,2,3,16;
 1/18=20,19=15/3(-8);
 2/9=110/2;
 6/7=2,8=2,9=2,10=2/1;
 99//99;
 Leave Link    1 at Fri Sep 17 13:32:33 2021, MaxMem=   524288000 cpu:               0.0 elap:               0.2
 (Enter /opt/gaussian/g16_legacy/l101.exe)
 --------------------------------------------------
 Conformer number 1030. Energy MM = 23.242 kcal/mol
 --------------------------------------------------
 Symbolic Z-matrix:
 Charge =  0 Multiplicity = 1
 C                     0.6068   -1.0111    0.1334 
 H                     0.2953   -2.0272    0.4103 
 H                     0.5454   -0.4348    1.0643 
 C                     2.0336   -1.0533   -0.3738 
 C                     2.3889   -2.2763   -1.1798 
 H                     1.7571   -2.3443   -2.0709 
 H                     3.4316   -2.2641   -1.5144 
 H                     2.2446   -3.1811   -0.5802 
 C                     2.9573   -0.1033   -0.1272 
 H                     3.9643   -0.2406   -0.5202 
 C                     2.7695    1.1754    0.6264 
 H                     1.728     1.3811    0.8831 
 H                     3.3556    1.1519    1.55 
 H                     3.1262    2.0127    0.0178 
 C                    -1.9187    2.0528    0.1918 
 H                    -2.438     2.7213   -0.5024 
 H                    -0.8478    2.1205   -0.0127 
 H                    -2.0706    2.4277    1.2098 
 C                    -2.4637    0.6564    0.0698 
 C                    -3.8929    0.5074    0.5222 
 H                    -4.5465    1.1571   -0.0691 
 H                    -3.988     0.7843    1.5773 
 H                    -4.2588   -0.519     0.4137 
 C                    -1.7729   -0.4069   -0.3858 
 H                    -2.2699   -1.3769   -0.4107 
 C                    -0.3596   -0.4309   -0.9041 
 H                    -0.0294    0.5651   -1.217 
 H                    -0.3473   -1.044    -1.8142 
 
 ITRead=  0  0  0  0  0  0  0  0  0  0  0  0  0  0  0  0  0  0  0  0
 ITRead=  0  0  0  0  0  0  0  0
 MicOpt= -1 -1 -1 -1 -1 -1 -1 -1 -1 -1 -1 -1 -1 -1 -1 -1 -1 -1 -1 -1
 MicOpt= -1 -1 -1 -1 -1 -1 -1 -1
 NAtoms=     28 NQM=       28 NQMF=       0 NMMI=      0 NMMIF=      0
                NMic=       0 NMicF=      0.
                    Isotopes and Nuclear Properties:
 (Nuclear quadrupole moments (NQMom) in fm**2, nuclear magnetic moments (NMagM)
  in nuclear magnetons)

  Atom         1           2           3           4           5           6           7           8           9          10
 IAtWgt=          12           1           1          12          12           1           1           1          12           1
 AtmWgt=  12.0000000   1.0078250   1.0078250  12.0000000  12.0000000   1.0078250   1.0078250   1.0078250  12.0000000   1.0078250
 NucSpn=           0           1           1           0           0           1           1           1           0           1
 AtZEff=  -0.0000000  -0.0000000  -0.0000000  -0.0000000  -0.0000000  -0.0000000  -0.0000000  -0.0000000  -0.0000000  -0.0000000
 NQMom=    0.0000000   0.0000000   0.0000000   0.0000000   0.0000000   0.0000000   0.0000000   0.0000000   0.0000000   0.0000000
 NMagM=    0.0000000   2.7928460   2.7928460   0.0000000   0.0000000   2.7928460   2.7928460   2.7928460   0.0000000   2.7928460
 AtZNuc=   6.0000000   1.0000000   1.0000000   6.0000000   6.0000000   1.0000000   1.0000000   1.0000000   6.0000000   1.0000000

  Atom        11          12          13          14          15          16          17          18          19          20
 IAtWgt=          12           1           1           1          12           1           1           1          12          12
 AtmWgt=  12.0000000   1.0078250   1.0078250   1.0078250  12.0000000   1.0078250   1.0078250   1.0078250  12.0000000  12.0000000
 NucSpn=           0           1           1           1           0           1           1           1           0           0
 AtZEff=  -0.0000000  -0.0000000  -0.0000000  -0.0000000  -0.0000000  -0.0000000  -0.0000000  -0.0000000  -0.0000000  -0.0000000
 NQMom=    0.0000000   0.0000000   0.0000000   0.0000000   0.0000000   0.0000000   0.0000000   0.0000000   0.0000000   0.0000000
 NMagM=    0.0000000   2.7928460   2.7928460   2.7928460   0.0000000   2.7928460   2.7928460   2.7928460   0.0000000   0.0000000
 AtZNuc=   6.0000000   1.0000000   1.0000000   1.0000000   6.0000000   1.0000000   1.0000000   1.0000000   6.0000000   6.0000000

  Atom        21          22          23          24          25          26          27          28
 IAtWgt=           1           1           1          12           1          12           1           1
 AtmWgt=   1.0078250   1.0078250   1.0078250  12.0000000   1.0078250  12.0000000   1.0078250   1.0078250
 NucSpn=           1           1           1           0           1           0           1           1
 AtZEff=  -0.0000000  -0.0000000  -0.0000000  -0.0000000  -0.0000000  -0.0000000  -0.0000000  -0.0000000
 NQMom=    0.0000000   0.0000000   0.0000000   0.0000000   0.0000000   0.0000000   0.0000000   0.0000000
 NMagM=    2.7928460   2.7928460   2.7928460   0.0000000   2.7928460   0.0000000   2.7928460   2.7928460
 AtZNuc=   1.0000000   1.0000000   1.0000000   6.0000000   1.0000000   6.0000000   1.0000000   1.0000000
 Leave Link  101 at Fri Sep 17 13:32:34 2021, MaxMem=   524288000 cpu:               0.1 elap:               0.5
 (Enter /opt/gaussian/g16_legacy/l103.exe)

 GradGradGradGradGradGradGradGradGradGradGradGradGradGradGradGradGradGrad
 Berny optimization.
 Initialization pass.
                           ----------------------------
                           !    Initial Parameters    !
                           ! (Angstroms and Degrees)  !
 --------------------------                            --------------------------
 ! Name  Definition              Value          Derivative Info.                !
 --------------------------------------------------------------------------------
 ! R1    R(1,2)                  1.0983         estimate D2E/DX2                !
 ! R2    R(1,3)                  1.0966         estimate D2E/DX2                !
 ! R3    R(1,4)                  1.5149         estimate D2E/DX2                !
 ! R4    R(1,26)                 1.532          estimate D2E/DX2                !
 ! R5    R(4,5)                  1.5072         estimate D2E/DX2                !
 ! R6    R(4,9)                  1.3478         estimate D2E/DX2                !
 ! R7    R(5,6)                  1.0945         estimate D2E/DX2                !
 ! R8    R(5,7)                  1.0951         estimate D2E/DX2                !
 ! R9    R(5,8)                  1.095          estimate D2E/DX2                !
 ! R10   R(9,10)                 1.0897         estimate D2E/DX2                !
 ! R11   R(9,11)                 1.4961         estimate D2E/DX2                !
 ! R12   R(11,12)                1.0922         estimate D2E/DX2                !
 ! R13   R(11,13)                1.0941         estimate D2E/DX2                !
 ! R14   R(11,14)                1.0949         estimate D2E/DX2                !
 ! R15   R(15,16)                1.0948         estimate D2E/DX2                !
 ! R16   R(15,17)                1.0924         estimate D2E/DX2                !
 ! R17   R(15,18)                1.0954         estimate D2E/DX2                !
 ! R18   R(15,19)                1.5039         estimate D2E/DX2                !
 ! R19   R(19,20)                1.5065         estimate D2E/DX2                !
 ! R20   R(19,24)                1.3474         estimate D2E/DX2                !
 ! R21   R(20,21)                1.095          estimate D2E/DX2                !
 ! R22   R(20,22)                1.095          estimate D2E/DX2                !
 ! R23   R(20,23)                1.0951         estimate D2E/DX2                !
 ! R24   R(24,25)                1.0902         estimate D2E/DX2                !
 ! R25   R(24,26)                1.5055         estimate D2E/DX2                !
 ! R26   R(26,27)                1.095          estimate D2E/DX2                !
 ! R27   R(26,28)                1.0974         estimate D2E/DX2                !
 ! A1    A(2,1,3)              104.8516         estimate D2E/DX2                !
 ! A2    A(2,1,4)              109.0133         estimate D2E/DX2                !
 ! A3    A(2,1,26)             110.0123         estimate D2E/DX2                !
 ! A4    A(3,1,4)              110.5859         estimate D2E/DX2                !
 ! A5    A(3,1,26)             109.9105         estimate D2E/DX2                !
 ! A6    A(4,1,26)             112.2068         estimate D2E/DX2                !
 ! A7    A(1,4,5)              115.0678         estimate D2E/DX2                !
 ! A8    A(1,4,9)              124.3753         estimate D2E/DX2                !
 ! A9    A(5,4,9)              120.5466         estimate D2E/DX2                !
 ! A10   A(4,5,6)              110.4712         estimate D2E/DX2                !
 ! A11   A(4,5,7)              112.2594         estimate D2E/DX2                !
 ! A12   A(4,5,8)              110.2799         estimate D2E/DX2                !
 ! A13   A(6,5,7)              107.5512         estimate D2E/DX2                !
 ! A14   A(6,5,8)              108.5676         estimate D2E/DX2                !
 ! A15   A(7,5,8)              107.5767         estimate D2E/DX2                !
 ! A16   A(4,9,10)             118.591          estimate D2E/DX2                !
 ! A17   A(4,9,11)             127.4866         estimate D2E/DX2                !
 ! A18   A(10,9,11)            113.9145         estimate D2E/DX2                !
 ! A19   A(9,11,12)            113.5191         estimate D2E/DX2                !
 ! A20   A(9,11,13)            109.8531         estimate D2E/DX2                !
 ! A21   A(9,11,14)            109.4353         estimate D2E/DX2                !
 ! A22   A(12,11,13)           108.4487         estimate D2E/DX2                !
 ! A23   A(12,11,14)           107.2947         estimate D2E/DX2                !
 ! A24   A(13,11,14)           108.1281         estimate D2E/DX2                !
 ! A25   A(16,15,17)           107.9677         estimate D2E/DX2                !
 ! A26   A(16,15,18)           108.3327         estimate D2E/DX2                !
 ! A27   A(16,15,19)           110.0988         estimate D2E/DX2                !
 ! A28   A(17,15,18)           106.7809         estimate D2E/DX2                !
 ! A29   A(17,15,19)           113.4297         estimate D2E/DX2                !
 ! A30   A(18,15,19)           110.054          estimate D2E/DX2                !
 ! A31   A(15,19,20)           114.2843         estimate D2E/DX2                !
 ! A32   A(15,19,24)           125.056          estimate D2E/DX2                !
 ! A33   A(20,19,24)           120.6569         estimate D2E/DX2                !
 ! A34   A(19,20,21)           110.2087         estimate D2E/DX2                !
 ! A35   A(19,20,22)           110.2889         estimate D2E/DX2                !
 ! A36   A(19,20,23)           112.3304         estimate D2E/DX2                !
 ! A37   A(21,20,22)           108.5701         estimate D2E/DX2                !
 ! A38   A(21,20,23)           107.6496         estimate D2E/DX2                !
 ! A39   A(22,20,23)           107.6669         estimate D2E/DX2                !
 ! A40   A(19,24,25)           118.4345         estimate D2E/DX2                !
 ! A41   A(19,24,26)           127.6102         estimate D2E/DX2                !
 ! A42   A(25,24,26)           113.9479         estimate D2E/DX2                !
 ! A43   A(1,26,24)            111.4115         estimate D2E/DX2                !
 ! A44   A(1,26,27)            110.3522         estimate D2E/DX2                !
 ! A45   A(1,26,28)            110.0584         estimate D2E/DX2                !
 ! A46   A(24,26,27)           111.5285         estimate D2E/DX2                !
 ! A47   A(24,26,28)           107.7539         estimate D2E/DX2                !
 ! A48   A(27,26,28)           105.5343         estimate D2E/DX2                !
 ! D1    D(2,1,4,5)             36.6491         estimate D2E/DX2                !
 ! D2    D(2,1,4,9)           -142.1835         estimate D2E/DX2                !
 ! D3    D(3,1,4,5)            151.4221         estimate D2E/DX2                !
 ! D4    D(3,1,4,9)            -27.4105         estimate D2E/DX2                !
 ! D5    D(26,1,4,5)           -85.4673         estimate D2E/DX2                !
 ! D6    D(26,1,4,9)            95.7            estimate D2E/DX2                !
 ! D7    D(2,1,26,24)           58.0246         estimate D2E/DX2                !
 ! D8    D(2,1,26,27)         -177.5125         estimate D2E/DX2                !
 ! D9    D(2,1,26,28)          -61.4383         estimate D2E/DX2                !
 ! D10   D(3,1,26,24)          -56.9395         estimate D2E/DX2                !
 ! D11   D(3,1,26,27)           67.5235         estimate D2E/DX2                !
 ! D12   D(3,1,26,28)         -176.4024         estimate D2E/DX2                !
 ! D13   D(4,1,26,24)          179.5707         estimate D2E/DX2                !
 ! D14   D(4,1,26,27)          -55.9663         estimate D2E/DX2                !
 ! D15   D(4,1,26,28)           60.1078         estimate D2E/DX2                !
 ! D16   D(1,4,5,6)             60.5244         estimate D2E/DX2                !
 ! D17   D(1,4,5,7)           -179.4357         estimate D2E/DX2                !
 ! D18   D(1,4,5,8)            -59.495          estimate D2E/DX2                !
 ! D19   D(9,4,5,6)           -120.5943         estimate D2E/DX2                !
 ! D20   D(9,4,5,7)             -0.5545         estimate D2E/DX2                !
 ! D21   D(9,4,5,8)            119.3863         estimate D2E/DX2                !
 ! D22   D(1,4,9,10)           178.6014         estimate D2E/DX2                !
 ! D23   D(1,4,9,11)            -2.483          estimate D2E/DX2                !
 ! D24   D(5,4,9,10)            -0.1708         estimate D2E/DX2                !
 ! D25   D(5,4,9,11)           178.7448         estimate D2E/DX2                !
 ! D26   D(4,9,11,12)           -7.9252         estimate D2E/DX2                !
 ! D27   D(4,9,11,13)          113.6808         estimate D2E/DX2                !
 ! D28   D(4,9,11,14)         -127.7516         estimate D2E/DX2                !
 ! D29   D(10,9,11,12)         171.0332         estimate D2E/DX2                !
 ! D30   D(10,9,11,13)         -67.3608         estimate D2E/DX2                !
 ! D31   D(10,9,11,14)          51.2068         estimate D2E/DX2                !
 ! D32   D(16,15,19,20)        -66.5589         estimate D2E/DX2                !
 ! D33   D(16,15,19,24)        114.0514         estimate D2E/DX2                !
 ! D34   D(17,15,19,20)        172.3382         estimate D2E/DX2                !
 ! D35   D(17,15,19,24)         -7.0515         estimate D2E/DX2                !
 ! D36   D(18,15,19,20)         52.7899         estimate D2E/DX2                !
 ! D37   D(18,15,19,24)       -126.5998         estimate D2E/DX2                !
 ! D38   D(15,19,20,21)         59.599          estimate D2E/DX2                !
 ! D39   D(15,19,20,22)        -60.2611         estimate D2E/DX2                !
 ! D40   D(15,19,20,23)        179.6304         estimate D2E/DX2                !
 ! D41   D(24,19,20,21)       -120.9817         estimate D2E/DX2                !
 ! D42   D(24,19,20,22)        119.1581         estimate D2E/DX2                !
 ! D43   D(24,19,20,23)         -0.9504         estimate D2E/DX2                !
 ! D44   D(15,19,24,25)        178.8313         estimate D2E/DX2                !
 ! D45   D(15,19,24,26)         -2.2172         estimate D2E/DX2                !
 ! D46   D(20,19,24,25)         -0.522          estimate D2E/DX2                !
 ! D47   D(20,19,24,26)        178.4295         estimate D2E/DX2                !
 ! D48   D(19,24,26,1)         103.3676         estimate D2E/DX2                !
 ! D49   D(19,24,26,27)        -20.4313         estimate D2E/DX2                !
 ! D50   D(19,24,26,28)       -135.8101         estimate D2E/DX2                !
 ! D51   D(25,24,26,1)         -77.6413         estimate D2E/DX2                !
 ! D52   D(25,24,26,27)        158.5599         estimate D2E/DX2                !
 ! D53   D(25,24,26,28)         43.181          estimate D2E/DX2                !
 --------------------------------------------------------------------------------
 Trust Radius=3.00D-01 FncErr=1.00D-07 GrdErr=1.00D-07 EigMax=2.50D+02 EigMin=1.00D-04
 Number of steps in this run=    138 maximum allowed number of steps=    168.
 GradGradGradGradGradGradGradGradGradGradGradGradGradGradGradGradGradGrad

 Leave Link  103 at Fri Sep 17 13:32:34 2021, MaxMem=   524288000 cpu:               0.0 elap:               0.4
 (Enter /opt/gaussian/g16_legacy/l202.exe)
                          Input orientation:                          
 ---------------------------------------------------------------------
 Center     Atomic      Atomic             Coordinates (Angstroms)
 Number     Number       Type             X           Y           Z
 ---------------------------------------------------------------------
      1          6           0        0.606800   -1.011100    0.133400
      2          1           0        0.295300   -2.027200    0.410300
      3          1           0        0.545400   -0.434800    1.064300
      4          6           0        2.033600   -1.053300   -0.373800
      5          6           0        2.388900   -2.276300   -1.179800
      6          1           0        1.757100   -2.344300   -2.070900
      7          1           0        3.431600   -2.264100   -1.514400
      8          1           0        2.244600   -3.181100   -0.580200
      9          6           0        2.957300   -0.103300   -0.127200
     10          1           0        3.964300   -0.240600   -0.520200
     11          6           0        2.769500    1.175400    0.626400
     12          1           0        1.728000    1.381100    0.883100
     13          1           0        3.355600    1.151900    1.550000
     14          1           0        3.126200    2.012700    0.017800
     15          6           0       -1.918700    2.052800    0.191800
     16          1           0       -2.438000    2.721300   -0.502400
     17          1           0       -0.847800    2.120500   -0.012700
     18          1           0       -2.070600    2.427700    1.209800
     19          6           0       -2.463700    0.656400    0.069800
     20          6           0       -3.892900    0.507400    0.522200
     21          1           0       -4.546500    1.157100   -0.069100
     22          1           0       -3.988000    0.784300    1.577300
     23          1           0       -4.258800   -0.519000    0.413700
     24          6           0       -1.772900   -0.406900   -0.385800
     25          1           0       -2.269900   -1.376900   -0.410700
     26          6           0       -0.359600   -0.430900   -0.904100
     27          1           0       -0.029400    0.565100   -1.217000
     28          1           0       -0.347300   -1.044000   -1.814200
 ---------------------------------------------------------------------
                    Distance matrix (angstroms):
                    1          2          3          4          5
     1  C    0.000000
     2  H    1.098255   0.000000
     3  H    1.096570   1.739541   0.000000
     4  C    1.514857   2.141257   2.159957   0.000000
     5  C    2.549727   2.640763   3.438837   1.507184   0.000000
     6  H    2.821268   2.897200   3.865732   2.150182   1.094465
     7  H    3.502106   3.687407   4.280909   2.172880   1.095139
     8  H    2.810785   2.472316   3.624062   2.148175   1.094991
     9  C    2.533153   3.328144   2.710503   1.347788   2.480519
    10  H    3.506233   4.185610   3.773226   2.099885   2.657260
    11  C    3.114659   4.052778   2.780489   2.551284   3.914262
    12  H    2.746227   3.727288   2.174596   2.756718   4.250755
    13  H    3.773755   4.557524   3.263548   3.211168   4.487635
    14  H    3.937525   4.948620   3.707553   3.278335   4.513688
    15  C    3.971026   4.647143   3.608490   5.058501   6.259218
    16  H    4.858586   5.554476   4.616946   5.853149   6.980963
    17  H    3.456027   4.323080   3.103304   4.301844   5.583028
    18  H    4.489148   5.107134   3.880533   5.609778   6.908324
    19  C    3.494649   3.863901   3.351780   4.831725   5.806028
    20  C    4.764904   4.896707   4.569477   6.193707   7.078616
    21  H    5.594515   5.814862   5.454006   6.948124   7.818034
    22  H    5.140087   5.254815   4.722403   6.591148   7.591688
    23  H    4.898448   4.797344   4.848784   6.363956   7.058276
    24  C    2.509502   2.745287   2.734608   3.861013   4.630947
    25  H    2.950467   2.770773   3.314980   4.315807   4.806751
    26  C    1.531981   2.169036   2.166481   2.529033   3.322012
    27  H    2.170884   3.077914   2.556272   2.754301   3.731369
    28  H    2.168994   2.515555   3.074703   2.782719   3.067217
                    6          7          8          9         10
     6  H    0.000000
     7  H    1.766373   0.000000
     8  H    1.777661   1.767085   0.000000
     9  C    3.200083   2.611195   3.191552   0.000000
    10  H    3.420812   2.316626   3.406979   1.089656   0.000000
    11  C    4.548480   4.105065   4.550879   1.496080   2.178829
    12  H    4.754531   4.683774   4.818899   2.176081   3.098419
    13  H    5.281054   4.589704   4.954489   2.132409   2.568132
    14  H    5.022007   4.553232   5.301922   2.127677   2.463578
    15  C    6.161640   7.083252   6.732218   5.340965   6.354236
    16  H    6.761609   7.767275   7.534661   6.101508   7.054262
    17  H    5.563823   6.308176   6.163762   4.408762   5.384111
    18  H    6.941633   7.727125   7.299568   5.785612   6.821491
    19  C    5.603744   6.767095   6.108764   5.477517   6.517046
    20  C    6.839507   8.091802   7.244945   6.907960   7.961262
    21  H    7.483474   8.800203   8.074667   7.609139   8.636595
    22  H    7.490239   8.596617   7.695746   7.206271   8.287883
    23  H    6.759882   8.118202   7.097100   7.248274   8.280643
    24  C    4.365087   5.640013   4.886132   4.746982   5.741183
    25  H    4.461934   5.874724   4.864625   5.387583   6.337856
    26  C    3.082684   4.255148   3.801364   3.422385   4.345078
    27  H    3.519281   4.480105   4.428386   3.248815   4.133319
    28  H    2.487001   3.982287   3.578812   3.827697   4.572722
                   11         12         13         14         15
    11  C    0.000000
    12  H    1.092213   0.000000
    13  H    1.094122   1.773801   0.000000
    14  H    1.094852   1.761427   1.772354   0.000000
    15  C    4.789356   3.771936   5.520378   5.048059   0.000000
    16  H    5.548158   4.590349   6.343592   5.633209   1.094750
    17  H    3.792957   2.825582   4.587896   3.975579   1.092351
    18  H    5.033406   3.953665   5.584537   5.347880   1.095421
    19  C    5.288246   4.330935   6.025012   5.752324   1.503942
    20  C    6.696615   5.699835   7.349320   7.196396   2.528812
    21  H    7.349007   6.350292   8.066269   7.720747   2.788491
    22  H    6.835274   5.788846   7.352845   7.385990   2.794764
    23  H    7.232789   6.298610   7.877955   7.816935   3.484173
    24  C    4.915447   4.130781   5.699008   5.478918   2.530811
    25  H    5.743289   5.026300   6.471895   6.386775   3.499884
    26  C    3.835870   3.291732   4.725524   4.355672   3.130584
    27  H    3.406528   2.857399   4.411218   3.684846   2.787010
    28  H    4.538360   4.178924   5.463633   4.976429   4.010424
                   16         17         18         19         20
    16  H    0.000000
    17  H    1.769040   0.000000
    18  H    1.775616   1.756166   0.000000
    19  C    2.142868   2.182093   2.142809   0.000000
    20  C    2.840404   3.487240   2.735164   1.506479   0.000000
    21  H    2.660873   3.822526   3.062693   2.146637   1.094961
    22  H    3.237224   3.764889   2.551910   2.147651   1.094967
    23  H    3.828067   4.334016   3.755667   2.173066   1.095058
    24  C    3.200248   2.717124   3.266423   1.347361   2.480889
    25  H    4.102671   3.796390   4.140135   2.098273   2.656128
    26  C    3.797035   2.746375   3.945591   2.560847   3.924149
    27  H    3.310771   2.130584   3.677653   2.754997   4.237308
    28  H    4.502147   3.675590   4.915998   3.304537   4.520717
                   21         22         23         24         25
    21  H    0.000000
    22  H    1.778071   0.000000
    23  H    1.767817   1.768018   0.000000
    24  C    3.199883   3.190515   2.613707   0.000000
    25  H    3.423559   3.402175   2.317618   1.090197   0.000000
    26  C    4.555118   4.560630   4.116809   1.505532   2.188060
    27  H    4.698120   4.850430   4.660717   2.162283   3.072674
    28  H    5.052078   5.300910   4.531997   2.116260   2.403544
                   26         27         28
    26  C    0.000000
    27  H    1.094968   0.000000
    28  H    1.097417   1.745540   0.000000
 Stoichiometry    C10H18
 Framework group  C1[X(C10H18)]
 Deg. of freedom    78
 Full point group                 C1      NOp   1
 Largest Abelian subgroup         C1      NOp   1
 Largest concise Abelian subgroup C1      NOp   1
                         Standard orientation:                         
 ---------------------------------------------------------------------
 Center     Atomic      Atomic             Coordinates (Angstroms)
 Number     Number       Type             X           Y           Z
 ---------------------------------------------------------------------
      1          6           0        0.793777   -0.586527    0.589216
      2          1           0        0.746009   -1.484286    1.220020
      3          1           0        0.484595    0.235304    1.246077
      4          6           0        2.220923   -0.386955    0.122079
      5          6           0        2.975668   -1.654976   -0.184657
      6          1           0        2.478698   -2.212166   -0.984916
      7          1           0        4.003254   -1.458165   -0.508170
      8          1           0        3.025237   -2.291739    0.704770
      9          6           0        2.820245    0.813895   -0.001640
     10          1           0        3.860384    0.846762   -0.324718
     11          6           0        2.215742    2.161834    0.234776
     12          1           0        1.137487    2.131955    0.406247
     13          1           0        2.690770    2.635701    1.099010
     14          1           0        2.388731    2.797170   -0.639937
     15          6           0       -2.466039    1.425927   -0.456091
     16          1           0       -3.076420    1.626076   -1.342575
     17          1           0       -1.439627    1.726011   -0.678932
     18          1           0       -2.815416    2.072756    0.356003
     19          6           0       -2.593415   -0.018276   -0.056224
     20          6           0       -3.965105   -0.407951    0.429674
     21          1           0       -4.709094   -0.227492   -0.353176
     22          1           0       -4.237043    0.181210    1.311656
     23          1           0       -4.023662   -1.466002    0.705811
     24          6           0       -1.596317   -0.923529   -0.097424
     25          1           0       -1.804059   -1.940185    0.236916
     26          6           0       -0.185957   -0.715584   -0.581439
     27          1           0       -0.111211    0.157089   -1.238560
     28          1           0        0.084240   -1.577152   -1.205152
 ---------------------------------------------------------------------
 Rotational constants (GHZ):           2.2181618           0.5802262           0.4854226
 Leave Link  202 at Fri Sep 17 13:32:35 2021, MaxMem=   524288000 cpu:               0.0 elap:               0.1
 (Enter /opt/gaussian/g16_legacy/l301.exe)
 Standard basis: 6-31G(d,p) (6D, 7F)
 Ernie: Thresh=  0.10000D-02 Tol=  0.10000D-05 Strict=F.
 There are   240 symmetry adapted cartesian basis functions of A   symmetry.
 There are   240 symmetry adapted basis functions of A   symmetry.
   240 basis functions,   406 primitive gaussians,   240 cartesian basis functions
    39 alpha electrons       39 beta electrons
       nuclear repulsion energy       516.4364843173 Hartrees.
 IExCor=    0 DFT=F Ex=HF Corr=None ExCW=0 ScaHFX=  1.000000
 ScaDFX=  1.000000  1.000000  1.000000  1.000000 ScalE2=  1.000000  1.000000
 IRadAn=      5 IRanWt=     -1 IRanGd=            0 ICorTp=0 IEmpDi=  4
 NAtoms=   28 NActive=   28 NUniq=   28 SFac= 1.00D+00 NAtFMM=   60 NAOKFM=F Big=F
 Integral buffers will be    131072 words long.
 Raffenetti 1 integral format.
 Two-electron integral symmetry is turned on.
 Leave Link  301 at Fri Sep 17 13:32:36 2021, MaxMem=   524288000 cpu:               0.1 elap:               0.8
 (Enter /opt/gaussian/g16_legacy/l302.exe)
 NPDir=0 NMtPBC=     1 NCelOv=     1 NCel=       1 NClECP=     1 NCelD=      1
         NCelK=      1 NCelE2=     1 NClLst=     1 CellRange=     0.0.
 One-electron integrals computed using PRISM.
 One-electron integral symmetry used in STVInt
 NBasis=   240 RedAO= T EigKep=  2.10D-03  NBF=   240
 NBsUse=   240 1.00D-06 EigRej= -1.00D+00 NBFU=   240
 Leave Link  302 at Fri Sep 17 13:32:36 2021, MaxMem=   524288000 cpu:               0.2 elap:               0.4
 (Enter /opt/gaussian/g16_legacy/l303.exe)
 DipDrv:  MaxL=1.
 Leave Link  303 at Fri Sep 17 13:32:37 2021, MaxMem=   524288000 cpu:               0.0 elap:               0.2
 (Enter /opt/gaussian/g16_legacy/l401.exe)
 ExpMin= 1.61D-01 ExpMax= 3.05D+03 ExpMxC= 4.57D+02 IAcc=3 IRadAn=         5 AccDes= 0.00D+00
 Harris functional with IExCor=  205 and IRadAn=       5 diagonalized for initial guess.
 HarFok:  IExCor=  205 AccDes= 0.00D+00 IRadAn=         5 IDoV= 1 UseB2=F ITyADJ=14
 ICtDFT=  3500011 ScaDFX=  1.000000  1.000000  1.000000  1.000000
 FoFCou: FMM=F IPFlag=           0 FMFlag=      100000 FMFlg1=           0
         NFxFlg=           0 DoJE=T BraDBF=F KetDBF=T FulRan=T
         wScrn=  0.000000 ICntrl=       500 IOpCl=  0 I1Cent=   200000004 NGrid=           0
         NMat0=    1 NMatS0=      1 NMatT0=    0 NMatD0=    1 NMtDS0=    0 NMtDT0=    0
 Petite list used in FoFCou.
 Harris En= -390.109908930572    
 JPrj=0 DoOrth=F DoCkMO=F.
 Leave Link  401 at Fri Sep 17 13:32:44 2021, MaxMem=   524288000 cpu:               6.2 elap:               7.5
 (Enter /opt/gaussian/g16_legacy/l502.exe)
 Keep R1 ints in memory in canonical form, NReq=425198025.
 FoFCou: FMM=F IPFlag=           0 FMFlag=           0 FMFlg1=           0
         NFxFlg=           0 DoJE=F BraDBF=F KetDBF=F FulRan=T
         wScrn=  0.000000 ICntrl=       600 IOpCl=  0 I1Cent=           0 NGrid=           0
         NMat0=    1 NMatS0=  28920 NMatT0=    0 NMatD0=    1 NMtDS0=    0 NMtDT0=    0
 Symmetry not used in FoFCou.
 Two-electron integral symmetry not used.
 Closed shell SCF:
 Using DIIS extrapolation, IDIIS=  1040.
 NGot=   524288000 LenX=   105970886 LenY=   105912845
 Requested convergence on RMS density matrix=1.00D-08 within 128 cycles.
 Requested convergence on MAX density matrix=1.00D-06.
 Requested convergence on             energy=1.00D-06.
 No special actions if energy rises.

 Cycle   1  Pass 1  IDiag  1:
 E= -388.533173052945    
 DIIS: error= 5.21D-02 at cycle   1 NSaved=   1.
 NSaved= 1 IEnMin= 1 EnMin= -388.533173052945     IErMin= 1 ErrMin= 5.21D-02
 ErrMax= 5.21D-02  0.00D+00 EMaxC= 1.00D-01 BMatC= 8.07D-01 BMatP= 8.07D-01
 IDIUse=3 WtCom= 4.79D-01 WtEn= 5.21D-01
 Coeff-Com:  0.100D+01
 Coeff-En:   0.100D+01
 Coeff:      0.100D+01
 Gap=     0.508 Goal=   None    Shift=    0.000
 GapD=    0.508 DampG=2.000 DampE=0.500 DampFc=1.0000 IDamp=-1.
 RMSDP=4.00D-03 MaxDP=1.14D-01              OVMax= 1.33D-01

 Cycle   2  Pass 1  IDiag  1:
 E= -389.073876350962     Delta-E=       -0.540703298017 Rises=F Damp=F
 DIIS: error= 1.59D-02 at cycle   2 NSaved=   2.
 NSaved= 2 IEnMin= 2 EnMin= -389.073876350962     IErMin= 2 ErrMin= 1.59D-02
 ErrMax= 1.59D-02  0.00D+00 EMaxC= 1.00D-01 BMatC= 8.66D-02 BMatP= 8.07D-01
 IDIUse=3 WtCom= 8.41D-01 WtEn= 1.59D-01
 Coeff-Com:  0.183D+00 0.817D+00
 Coeff-En:   0.000D+00 0.100D+01
 Coeff:      0.154D+00 0.846D+00
 Gap=     0.549 Goal=   None    Shift=    0.000
 RMSDP=1.63D-03 MaxDP=3.04D-02 DE=-5.41D-01 OVMax= 4.61D-02

 Cycle   3  Pass 1  IDiag  1:
 E= -389.151438330976     Delta-E=       -0.077561980014 Rises=F Damp=F
 DIIS: error= 3.43D-03 at cycle   3 NSaved=   3.
 NSaved= 3 IEnMin= 3 EnMin= -389.151438330976     IErMin= 3 ErrMin= 3.43D-03
 ErrMax= 3.43D-03  0.00D+00 EMaxC= 1.00D-01 BMatC= 3.14D-03 BMatP= 8.66D-02
 IDIUse=3 WtCom= 9.66D-01 WtEn= 3.43D-02
 Coeff-Com: -0.245D-01 0.106D+00 0.919D+00
 Coeff-En:   0.000D+00 0.000D+00 0.100D+01
 Coeff:     -0.236D-01 0.102D+00 0.921D+00
 Gap=     0.499 Goal=   None    Shift=    0.000
 RMSDP=2.59D-04 MaxDP=7.14D-03 DE=-7.76D-02 OVMax= 1.01D-02

 Cycle   4  Pass 1  IDiag  1:
 E= -389.155063972617     Delta-E=       -0.003625641642 Rises=F Damp=F
 DIIS: error= 5.31D-04 at cycle   4 NSaved=   4.
 NSaved= 4 IEnMin= 4 EnMin= -389.155063972617     IErMin= 4 ErrMin= 5.31D-04
 ErrMax= 5.31D-04  0.00D+00 EMaxC= 1.00D-01 BMatC= 9.28D-05 BMatP= 3.14D-03
 IDIUse=3 WtCom= 9.95D-01 WtEn= 5.31D-03
 Coeff-Com: -0.424D-02-0.190D-02 0.949D-01 0.911D+00
 Coeff-En:   0.000D+00 0.000D+00 0.000D+00 0.100D+01
 Coeff:     -0.421D-02-0.189D-02 0.944D-01 0.912D+00
 Gap=     0.499 Goal=   None    Shift=    0.000
 RMSDP=7.39D-05 MaxDP=1.49D-03 DE=-3.63D-03 OVMax= 3.14D-03

 Cycle   5  Pass 1  IDiag  1:
 E= -389.155188278227     Delta-E=       -0.000124305610 Rises=F Damp=F
 DIIS: error= 1.63D-04 at cycle   5 NSaved=   5.
 NSaved= 5 IEnMin= 5 EnMin= -389.155188278227     IErMin= 5 ErrMin= 1.63D-04
 ErrMax= 1.63D-04  0.00D+00 EMaxC= 1.00D-01 BMatC= 1.60D-05 BMatP= 9.28D-05
 IDIUse=3 WtCom= 9.98D-01 WtEn= 1.63D-03
 Coeff-Com:  0.241D-02-0.152D-01-0.102D+00 0.176D+00 0.939D+00
 Coeff-En:   0.000D+00 0.000D+00 0.000D+00 0.000D+00 0.100D+01
 Coeff:      0.241D-02-0.152D-01-0.102D+00 0.175D+00 0.939D+00
 Gap=     0.500 Goal=   None    Shift=    0.000
 RMSDP=3.00D-05 MaxDP=6.56D-04 DE=-1.24D-04 OVMax= 9.23D-04

 Cycle   6  Pass 1  IDiag  1:
 E= -389.155209753839     Delta-E=       -0.000021475612 Rises=F Damp=F
 DIIS: error= 3.58D-05 at cycle   6 NSaved=   6.
 NSaved= 6 IEnMin= 6 EnMin= -389.155209753839     IErMin= 6 ErrMin= 3.58D-05
 ErrMax= 3.58D-05  0.00D+00 EMaxC= 1.00D-01 BMatC= 5.49D-07 BMatP= 1.60D-05
 IDIUse=1 WtCom= 1.00D+00 WtEn= 0.00D+00
 Coeff-Com:  0.720D-03-0.335D-02-0.261D-01-0.433D-02 0.177D+00 0.856D+00
 Coeff:      0.720D-03-0.335D-02-0.261D-01-0.433D-02 0.177D+00 0.856D+00
 Gap=     0.500 Goal=   None    Shift=    0.000
 RMSDP=5.30D-06 MaxDP=1.61D-04 DE=-2.15D-05 OVMax= 3.23D-04

 Cycle   7  Pass 1  IDiag  1:
 E= -389.155210594524     Delta-E=       -0.000000840685 Rises=F Damp=F
 DIIS: error= 1.03D-05 at cycle   7 NSaved=   7.
 NSaved= 7 IEnMin= 7 EnMin= -389.155210594524     IErMin= 7 ErrMin= 1.03D-05
 ErrMax= 1.03D-05  0.00D+00 EMaxC= 1.00D-01 BMatC= 5.44D-08 BMatP= 5.49D-07
 IDIUse=1 WtCom= 1.00D+00 WtEn= 0.00D+00
 Coeff-Com: -0.494D-04 0.463D-03 0.301D-02-0.105D-01-0.468D-01 0.145D+00
 Coeff-Com:  0.909D+00
 Coeff:     -0.494D-04 0.463D-03 0.301D-02-0.105D-01-0.468D-01 0.145D+00
 Coeff:      0.909D+00
 Gap=     0.500 Goal=   None    Shift=    0.000
 RMSDP=1.71D-06 MaxDP=4.10D-05 DE=-8.41D-07 OVMax= 8.41D-05

 Cycle   8  Pass 1  IDiag  1:
 E= -389.155210683406     Delta-E=       -0.000000088882 Rises=F Damp=F
 DIIS: error= 3.51D-06 at cycle   8 NSaved=   8.
 NSaved= 8 IEnMin= 8 EnMin= -389.155210683406     IErMin= 8 ErrMin= 3.51D-06
 ErrMax= 3.51D-06  0.00D+00 EMaxC= 1.00D-01 BMatC= 5.09D-09 BMatP= 5.44D-08
 IDIUse=1 WtCom= 1.00D+00 WtEn= 0.00D+00
 Coeff-Com: -0.581D-04 0.249D-03 0.207D-02 0.315D-02-0.171D-01-0.803D-01
 Coeff-Com: -0.123D+00 0.121D+01
 Coeff:     -0.581D-04 0.249D-03 0.207D-02 0.315D-02-0.171D-01-0.803D-01
 Coeff:     -0.123D+00 0.121D+01
 Gap=     0.500 Goal=   None    Shift=    0.000
 RMSDP=7.85D-07 MaxDP=2.40D-05 DE=-8.89D-08 OVMax= 5.81D-05

 Cycle   9  Pass 1  IDiag  1:
 E= -389.155210699249     Delta-E=       -0.000000015843 Rises=F Damp=F
 DIIS: error= 1.46D-06 at cycle   9 NSaved=   9.
 NSaved= 9 IEnMin= 9 EnMin= -389.155210699249     IErMin= 9 ErrMin= 1.46D-06
 ErrMax= 1.46D-06  0.00D+00 EMaxC= 1.00D-01 BMatC= 7.38D-10 BMatP= 5.09D-09
 IDIUse=1 WtCom= 1.00D+00 WtEn= 0.00D+00
 Coeff-Com:  0.929D-05-0.690D-04-0.480D-03 0.144D-02 0.385D-02 0.981D-04
 Coeff-Com: -0.865D-01-0.120D+00 0.120D+01
 Coeff:      0.929D-05-0.690D-04-0.480D-03 0.144D-02 0.385D-02 0.981D-04
 Coeff:     -0.865D-01-0.120D+00 0.120D+01
 Gap=     0.500 Goal=   None    Shift=    0.000
 RMSDP=2.99D-07 MaxDP=1.24D-05 DE=-1.58D-08 OVMax= 2.71D-05

 Cycle  10  Pass 1  IDiag  1:
 E= -389.155210701671     Delta-E=       -0.000000002422 Rises=F Damp=F
 DIIS: error= 3.97D-07 at cycle  10 NSaved=  10.
 NSaved=10 IEnMin=10 EnMin= -389.155210701671     IErMin=10 ErrMin= 3.97D-07
 ErrMax= 3.97D-07  0.00D+00 EMaxC= 1.00D-01 BMatC= 1.21D-10 BMatP= 7.38D-10
 IDIUse=1 WtCom= 1.00D+00 WtEn= 0.00D+00
 Coeff-Com:  0.951D-05-0.464D-04-0.369D-03-0.135D-03 0.233D-02 0.142D-01
 Coeff-Com:  0.595D-02-0.211D+00 0.143D+00 0.105D+01
 Coeff:      0.951D-05-0.464D-04-0.369D-03-0.135D-03 0.233D-02 0.142D-01
 Coeff:      0.595D-02-0.211D+00 0.143D+00 0.105D+01
 Gap=     0.500 Goal=   None    Shift=    0.000
 RMSDP=1.24D-07 MaxDP=3.06D-06 DE=-2.42D-09 OVMax= 9.87D-06

 Cycle  11  Pass 1  IDiag  1:
 E= -389.155210701991     Delta-E=       -0.000000000320 Rises=F Damp=F
 DIIS: error= 1.55D-07 at cycle  11 NSaved=  11.
 NSaved=11 IEnMin=11 EnMin= -389.155210701991     IErMin=11 ErrMin= 1.55D-07
 ErrMax= 1.55D-07  0.00D+00 EMaxC= 1.00D-01 BMatC= 9.53D-12 BMatP= 1.21D-10
 IDIUse=1 WtCom= 1.00D+00 WtEn= 0.00D+00
 Coeff-Com:  0.394D-06 0.841D-06 0.103D-05-0.149D-03-0.305D-03 0.278D-02
 Coeff-Com:  0.110D-01-0.153D-01-0.107D+00 0.164D+00 0.945D+00
 Coeff:      0.394D-06 0.841D-06 0.103D-05-0.149D-03-0.305D-03 0.278D-02
 Coeff:      0.110D-01-0.153D-01-0.107D+00 0.164D+00 0.945D+00
 Gap=     0.500 Goal=   None    Shift=    0.000
 RMSDP=2.76D-08 MaxDP=1.16D-06 DE=-3.20D-10 OVMax= 2.51D-06

 Cycle  12  Pass 1  IDiag  1:
 E= -389.155210702017     Delta-E=       -0.000000000026 Rises=F Damp=F
 DIIS: error= 3.64D-08 at cycle  12 NSaved=  12.
 NSaved=12 IEnMin=12 EnMin= -389.155210702017     IErMin=12 ErrMin= 3.64D-08
 ErrMax= 3.64D-08  0.00D+00 EMaxC= 1.00D-01 BMatC= 1.17D-12 BMatP= 9.53D-12
 IDIUse=1 WtCom= 1.00D+00 WtEn= 0.00D+00
 Coeff-Com: -0.102D-05 0.547D-05 0.429D-04 0.322D-05-0.342D-03-0.126D-02
 Coeff-Com:  0.367D-03 0.217D-01-0.321D-01-0.113D+00 0.984D-01 0.103D+01
 Coeff:     -0.102D-05 0.547D-05 0.429D-04 0.322D-05-0.342D-03-0.126D-02
 Coeff:      0.367D-03 0.217D-01-0.321D-01-0.113D+00 0.984D-01 0.103D+01
 Gap=     0.500 Goal=   None    Shift=    0.000
 RMSDP=1.18D-08 MaxDP=3.33D-07 DE=-2.59D-11 OVMax= 8.46D-07

 Cycle  13  Pass 1  IDiag  1:
 E= -389.155210702022     Delta-E=       -0.000000000005 Rises=F Damp=F
 DIIS: error= 1.06D-08 at cycle  13 NSaved=  13.
 NSaved=13 IEnMin=13 EnMin= -389.155210702022     IErMin=13 ErrMin= 1.06D-08
 ErrMax= 1.06D-08  0.00D+00 EMaxC= 1.00D-01 BMatC= 5.47D-14 BMatP= 1.17D-12
 IDIUse=1 WtCom= 1.00D+00 WtEn= 0.00D+00
 Coeff-Com: -0.122D-06 0.462D-06 0.389D-05 0.136D-04-0.170D-04-0.298D-03
 Coeff-Com: -0.849D-03 0.352D-02 0.516D-02-0.213D-01-0.612D-01 0.111D+00
 Coeff-Com:  0.964D+00
 Coeff:     -0.122D-06 0.462D-06 0.389D-05 0.136D-04-0.170D-04-0.298D-03
 Coeff:     -0.849D-03 0.352D-02 0.516D-02-0.213D-01-0.612D-01 0.111D+00
 Coeff:      0.964D+00
 Gap=     0.500 Goal=   None    Shift=    0.000
 RMSDP=2.13D-09 MaxDP=7.02D-08 DE=-4.89D-12 OVMax= 1.05D-07

 SCF Done:  E(RHF) =  -389.155210702     A.U. after   13 cycles
            NFock= 13  Conv=0.21D-08     -V/T= 2.0014
 KE= 3.886261432325D+02 PE=-1.937506925554D+03 EE= 6.432890873020D+02
 Leave Link  502 at Fri Sep 17 13:33:08 2021, MaxMem=   524288000 cpu:              23.1 elap:              23.5
 (Enter /opt/gaussian/g16_legacy/l801.exe)
 ExpMin= 1.61D-01 ExpMax= 3.05D+03 ExpMxC= 4.57D+02 IAcc=3 IRadAn=         5 AccDes= 0.00D+00
 HarFok:  IExCor=  205 AccDes= 0.00D+00 IRadAn=         5 IDoV=-2 UseB2=F ITyADJ=14
 ICtDFT= 12500011 ScaDFX=  1.000000  1.000000  1.000000  1.000000
 Largest valence mixing into a core orbital is  1.98D-04
 Largest core mixing into a valence orbital is  3.52D-05
 Range of M.O.s used for correlation:    11   240
 NBasis=   240 NAE=    39 NBE=    39 NFC=    10 NFV=     0
 NROrb=    230 NOA=    29 NOB=    29 NVA=   201 NVB=   201
 Leave Link  801 at Fri Sep 17 13:33:09 2021, MaxMem=   524288000 cpu:               0.8 elap:               0.8
 (Enter /opt/gaussian/g16_legacy/l906.exe)
 Frozen-core derivative calculation, NFC=  10 NFV=   0.
 FulOut=F Deriv=T AODrv=T NAtomX=    28
   MMem=          88  MDisk=          29 MDiskD=          29
  W3Min=     2246400 MinDsk=     2795480 NBas6D=         240
 NBas2D=       29244    NTT=       28920    LW2=     2040000
    MDV=   523626386 MDiskM=       30186 NBas2p=       24383
 Fully direct method using O(ONN) memory.
 IMap=   1   2   3   4   5   6   7   8   9  10  11  12  13  14  15  16  17  18  19  20
 IMap=  21  22  23  24  25  26  27  28  29  30  31  32  33  34  35  36  37  38  39
 JobTyp=1 Pass  1:  I=  11 to  39 NPSUse=  1 ParTrn=F ParDer=F DoDerP=T.
 Spin components of T(2) and E(2):
     alpha-alpha T2 =       0.5715118221D-01 E2=     -0.1638026003D+00
     alpha-beta  T2 =       0.3618125339D+00 E2=     -0.1089335546D+01
     beta-beta   T2 =       0.5715118221D-01 E2=     -0.1638026003D+00
 The integrals were generated   1 times.
 ANorm=    0.1214954690D+01
 E2 =    -0.1416940746D+01 EUMP2 =    -0.39057215144831D+03
 Leave Link  906 at Fri Sep 17 13:36:00 2021, MaxMem=   524288000 cpu:             170.7 elap:             170.8
 (Enter /opt/gaussian/g16_legacy/l1002.exe)
 Minotr:  Closed shell wavefunction.
          Computing MP2/KS-MP2 derivatives.
          Using Z-Vector for PSCF gradient.
          Skipping F1 and S1 gradient terms here.
          IDoAtm=1111111111111111111111111111
          Frozen-core window.
          Direct CPHF calculation.
          Differentiating once with respect to electric field.
                with respect to dipole field.
          Differentiating once with respect to nuclear coordinates.
          Requested convergence is 1.0D-10 RMS, and 1.0D-09 maximum.
          NewPWx=F KeepS1=T KeepF1=T KeepIn=T MapXYZ=F SortEE=F KeepMc=T.
 Keep R1 ints in memory in canonical form, NReq=425201067.
 FoFCou: FMM=F IPFlag=           0 FMFlag=           0 FMFlg1=           0
         NFxFlg=           0 DoJE=F BraDBF=F KetDBF=F FulRan=T
         wScrn=  0.000000 ICntrl=       600 IOpCl=  0 I1Cent=           0 NGrid=           0
         NMat0=    1 NMatS0=  28920 NMatT0=    0 NMatD0=    1 NMtDS0=    0 NMtDT0=    0
 Symmetry not used in FoFCou.
 Two-electron integral symmetry not used.
          MDV=     524288000 using IRadAn=       5.
          Solving linear equations separately, MaxMat=       0.
          There are     1 degrees of freedom in the 1st order CPHF.  IDoFFX=0 NUNeed=     1.
 LinEq1:  Iter=  0 NonCon=     1 RMS=2.55D-03 Max=3.76D-02 NDo=     1
 AX will form     1 AO Fock derivatives at one time.
 LinEq1:  Iter=  1 NonCon=     1 RMS=6.90D-04 Max=9.75D-03 NDo=     1
 LinEq1:  Iter=  2 NonCon=     1 RMS=1.61D-04 Max=4.14D-03 NDo=     1
 LinEq1:  Iter=  3 NonCon=     1 RMS=4.31D-05 Max=5.07D-04 NDo=     1
 LinEq1:  Iter=  4 NonCon=     1 RMS=1.99D-05 Max=8.55D-04 NDo=     1
 LinEq1:  Iter=  5 NonCon=     1 RMS=5.06D-06 Max=8.26D-05 NDo=     1
 LinEq1:  Iter=  6 NonCon=     1 RMS=1.63D-06 Max=2.68D-05 NDo=     1
 LinEq1:  Iter=  7 NonCon=     1 RMS=4.13D-07 Max=4.18D-06 NDo=     1
 LinEq1:  Iter=  8 NonCon=     1 RMS=1.01D-07 Max=1.86D-06 NDo=     1
 LinEq1:  Iter=  9 NonCon=     1 RMS=2.33D-08 Max=6.32D-07 NDo=     1
 LinEq1:  Iter= 10 NonCon=     1 RMS=6.41D-09 Max=1.62D-07 NDo=     1
 LinEq1:  Iter= 11 NonCon=     1 RMS=1.89D-09 Max=3.63D-08 NDo=     1
 LinEq1:  Iter= 12 NonCon=     1 RMS=4.09D-10 Max=6.42D-09 NDo=     1
 LinEq1:  Iter= 13 NonCon=     1 RMS=1.01D-10 Max=1.09D-09 NDo=     1
 LinEq1:  Iter= 14 NonCon=     1 RMS=3.54D-11 Max=1.12D-09 NDo=     1
 LinEq1:  Iter= 15 NonCon=     0 RMS=1.05D-11 Max=1.52D-10 NDo=     1
 Linear equations converged to 1.000D-10 1.000D-09 after    15 iterations.
 End of Minotr F.D. properties file   721 does not exist.
 End of Minotr F.D. properties file   722 does not exist.
 End of Minotr F.D. properties file   788 does not exist.
 Leave Link 1002 at Fri Sep 17 13:36:27 2021, MaxMem=   524288000 cpu:              26.9 elap:              26.9
 (Enter /opt/gaussian/g16_legacy/l601.exe)
 Copying SCF densities to generalized density rwf, IOpCl= 0 IROHF=0.

 **********************************************************************

            Population analysis using the SCF density.

 **********************************************************************

 Orbital symmetries:
       Occupied  (A) (A) (A) (A) (A) (A) (A) (A) (A) (A) (A) (A)
                 (A) (A) (A) (A) (A) (A) (A) (A) (A) (A) (A) (A)
                 (A) (A) (A) (A) (A) (A) (A) (A) (A) (A) (A) (A)
                 (A) (A) (A)
       Virtual   (A) (A) (A) (A) (A) (A) (A) (A) (A) (A) (A) (A)
                 (A) (A) (A) (A) (A) (A) (A) (A) (A) (A) (A) (A)
                 (A) (A) (A) (A) (A) (A) (A) (A) (A) (A) (A) (A)
                 (A) (A) (A) (A) (A) (A) (A) (A) (A) (A) (A) (A)
                 (A) (A) (A) (A) (A) (A) (A) (A) (A) (A) (A) (A)
                 (A) (A) (A) (A) (A) (A) (A) (A) (A) (A) (A) (A)
                 (A) (A) (A) (A) (A) (A) (A) (A) (A) (A) (A) (A)
                 (A) (A) (A) (A) (A) (A) (A) (A) (A) (A) (A) (A)
                 (A) (A) (A) (A) (A) (A) (A) (A) (A) (A) (A) (A)
                 (A) (A) (A) (A) (A) (A) (A) (A) (A) (A) (A) (A)
                 (A) (A) (A) (A) (A) (A) (A) (A) (A) (A) (A) (A)
                 (A) (A) (A) (A) (A) (A) (A) (A) (A) (A) (A) (A)
                 (A) (A) (A) (A) (A) (A) (A) (A) (A) (A) (A) (A)
                 (A) (A) (A) (A) (A) (A) (A) (A) (A) (A) (A) (A)
                 (A) (A) (A) (A) (A) (A) (A) (A) (A) (A) (A) (A)
                 (A) (A) (A) (A) (A) (A) (A) (A) (A) (A) (A) (A)
                 (A) (A) (A) (A) (A) (A) (A) (A) (A)
 The electronic state is 1-A.
 Alpha  occ. eigenvalues --  -11.23060 -11.22505 -11.22000 -11.21921 -11.21883
 Alpha  occ. eigenvalues --  -11.21650 -11.21553 -11.21484 -11.21456 -11.21438
 Alpha  occ. eigenvalues --   -1.10624  -1.08327  -1.01912  -0.98013  -0.93646
 Alpha  occ. eigenvalues --   -0.91776  -0.86754  -0.82686  -0.70598  -0.69343
 Alpha  occ. eigenvalues --   -0.64585  -0.61545  -0.60102  -0.59031  -0.58087
 Alpha  occ. eigenvalues --   -0.56804  -0.55367  -0.55150  -0.53549  -0.51981
 Alpha  occ. eigenvalues --   -0.51716  -0.51320  -0.50592  -0.49228  -0.48276
 Alpha  occ. eigenvalues --   -0.46014  -0.44273  -0.33357  -0.31526
 Alpha virt. eigenvalues --    0.18456   0.19494   0.22038   0.24453   0.25182
 Alpha virt. eigenvalues --    0.27141   0.28394   0.28931   0.30249   0.30505
 Alpha virt. eigenvalues --    0.31238   0.32116   0.33135   0.33436   0.34031
 Alpha virt. eigenvalues --    0.35677   0.35774   0.36970   0.38998   0.40647
 Alpha virt. eigenvalues --    0.41063   0.42594   0.43321   0.44192   0.45150
 Alpha virt. eigenvalues --    0.51684   0.54046   0.61172   0.62446   0.70138
 Alpha virt. eigenvalues --    0.71102   0.71887   0.74279   0.76418   0.76616
 Alpha virt. eigenvalues --    0.76877   0.78794   0.79455   0.81139   0.82036
 Alpha virt. eigenvalues --    0.83811   0.85655   0.88079   0.91266   0.92026
 Alpha virt. eigenvalues --    0.92895   0.95179   0.97058   0.98263   0.99207
 Alpha virt. eigenvalues --    0.99751   1.00202   1.02302   1.03925   1.06182
 Alpha virt. eigenvalues --    1.07863   1.08640   1.08810   1.11198   1.12390
 Alpha virt. eigenvalues --    1.12561   1.13431   1.14583   1.14926   1.15819
 Alpha virt. eigenvalues --    1.16162   1.16402   1.18223   1.18706   1.20092
 Alpha virt. eigenvalues --    1.20662   1.22068   1.22854   1.25019   1.27543
 Alpha virt. eigenvalues --    1.34170   1.40671   1.41850   1.43740   1.45169
 Alpha virt. eigenvalues --    1.47558   1.53477   1.56257   1.56979   1.58248
 Alpha virt. eigenvalues --    1.59851   1.62721   1.65797   1.69520   1.70790
 Alpha virt. eigenvalues --    1.75333   1.82525   1.92036   1.92195   1.95501
 Alpha virt. eigenvalues --    1.98632   2.01126   2.02850   2.04183   2.08702
 Alpha virt. eigenvalues --    2.09243   2.11120   2.11378   2.13101   2.14507
 Alpha virt. eigenvalues --    2.15427   2.17690   2.19725   2.23577   2.27383
 Alpha virt. eigenvalues --    2.28340   2.29995   2.32200   2.34972   2.35568
 Alpha virt. eigenvalues --    2.35647   2.35785   2.39323   2.39850   2.40349
 Alpha virt. eigenvalues --    2.41282   2.41826   2.43040   2.45160   2.45386
 Alpha virt. eigenvalues --    2.47037   2.48342   2.49335   2.50338   2.54524
 Alpha virt. eigenvalues --    2.56588   2.57722   2.61275   2.62185   2.64355
 Alpha virt. eigenvalues --    2.66342   2.67159   2.72033   2.72994   2.73746
 Alpha virt. eigenvalues --    2.75720   2.77700   2.81089   2.82804   2.85157
 Alpha virt. eigenvalues --    2.87729   2.89154   2.91919   2.93442   2.94436
 Alpha virt. eigenvalues --    2.97094   2.99036   3.01166   3.02599   3.05099
 Alpha virt. eigenvalues --    3.05822   3.06634   3.08507   3.13018   3.15941
 Alpha virt. eigenvalues --    3.17137   3.18164   3.19616   3.20680   3.21264
 Alpha virt. eigenvalues --    3.23189   3.24415   3.26467   3.27245   3.36668
 Alpha virt. eigenvalues --    3.39074   3.44606   3.45620   3.55550   3.57292
 Alpha virt. eigenvalues --    3.58698   3.61056   3.66890   3.73955   3.78199
 Alpha virt. eigenvalues --    3.78867   3.80512   3.81326   3.82330   3.82836
 Alpha virt. eigenvalues --    3.84215   3.85754   3.87654   3.89513   3.91171
 Alpha virt. eigenvalues --    3.95900   4.59096   4.62635   4.74429   4.82815
 Alpha virt. eigenvalues --    4.88838   4.92668   4.93351   5.07550   5.10289
 Alpha virt. eigenvalues --    5.16870
          Condensed to atoms (all electrons):
               1          2          3          4          5          6
     1  C    5.001769   0.413513   0.412354   0.340300  -0.058747  -0.000530
     2  H    0.413513   0.588457  -0.030224  -0.045053  -0.004690  -0.000276
     3  H    0.412354  -0.030224   0.571689  -0.040532   0.003238  -0.000030
     4  C    0.340300  -0.045053  -0.040532   4.955064   0.349331  -0.045811
     5  C   -0.058747  -0.004690   0.003238   0.349331   4.896466   0.400286
     6  H   -0.000530  -0.000276  -0.000030  -0.045811   0.400286   0.594753
     7  H    0.003676   0.000081  -0.000103  -0.041407   0.406181  -0.028073
     8  H   -0.003555   0.002571  -0.000016  -0.043074   0.397370  -0.035019
     9  C   -0.044037   0.001918  -0.002232   0.698844  -0.045940  -0.001035
    10  H    0.003078  -0.000114   0.000060  -0.036523  -0.006482   0.000123
    11  C   -0.007063   0.000138  -0.002134  -0.050690   0.003425  -0.000100
    12  H   -0.001829   0.000004  -0.001334  -0.000418   0.000092   0.000000
    13  H    0.000227   0.000028   0.000172  -0.001413  -0.000116  -0.000005
    14  H    0.000232  -0.000010  -0.000034   0.000594  -0.000100   0.000015
    15  C    0.000597  -0.000016   0.000160  -0.000017  -0.000000  -0.000000
    16  H   -0.000041   0.000000   0.000014   0.000001  -0.000000   0.000000
    17  H   -0.000053  -0.000012  -0.000052  -0.000027  -0.000000   0.000000
    18  H    0.000077  -0.000001  -0.000076  -0.000002   0.000000   0.000000
    19  C   -0.003608   0.000615   0.001046   0.000006  -0.000002   0.000000
    20  C   -0.000101  -0.000000  -0.000042   0.000002  -0.000000  -0.000000
    21  H   -0.000004   0.000000   0.000001   0.000000  -0.000000   0.000000
    22  H    0.000022  -0.000001  -0.000005  -0.000000   0.000000   0.000000
    23  H   -0.000003   0.000002  -0.000002   0.000000  -0.000000  -0.000000
    24  C   -0.063065  -0.000608  -0.000807   0.006130  -0.000158  -0.000086
    25  H    0.000004   0.001004   0.000213  -0.000155   0.000010   0.000012
    26  C    0.326235  -0.044599  -0.039862  -0.057362  -0.000188   0.000810
    27  H   -0.040294   0.004203  -0.002145  -0.001438   0.000317  -0.000009
    28  H   -0.045136  -0.002603   0.004291  -0.001852  -0.000392  -0.000187
               7          8          9         10         11         12
     1  C    0.003676  -0.003555  -0.044037   0.003078  -0.007063  -0.001829
     2  H    0.000081   0.002571   0.001918  -0.000114   0.000138   0.000004
     3  H   -0.000103  -0.000016  -0.002232   0.000060  -0.002134  -0.001334
     4  C   -0.041407  -0.043074   0.698844  -0.036523  -0.050690  -0.000418
     5  C    0.406181   0.397370  -0.045940  -0.006482   0.003425   0.000092
     6  H   -0.028073  -0.035019  -0.001035   0.000123  -0.000100   0.000000
     7  H    0.571017  -0.027608  -0.002738   0.002222   0.000137   0.000004
     8  H   -0.027608   0.593678  -0.000425   0.000248  -0.000114  -0.000001
     9  C   -0.002738  -0.000425   4.939946   0.404878   0.337726  -0.041936
    10  H    0.002222   0.000248   0.404878   0.559337  -0.043641   0.003315
    11  C    0.000137  -0.000114   0.337726  -0.043641   4.906219   0.408023
    12  H    0.000004  -0.000001  -0.041936   0.003315   0.408023   0.573901
    13  H   -0.000004   0.000021  -0.044352  -0.000221   0.400032  -0.026864
    14  H   -0.000009  -0.000004  -0.042842  -0.002647   0.403002  -0.030018
    15  C   -0.000000  -0.000000   0.000010  -0.000000  -0.000097   0.000010
    16  H    0.000000   0.000000   0.000000   0.000000   0.000002  -0.000006
    17  H    0.000000  -0.000000  -0.000032   0.000000   0.000040   0.000571
    18  H   -0.000000  -0.000000   0.000000  -0.000000  -0.000003   0.000034
    19  C    0.000000   0.000000   0.000001   0.000000   0.000007  -0.000013
    20  C    0.000000  -0.000000  -0.000000   0.000000  -0.000000   0.000000
    21  H    0.000000   0.000000   0.000000   0.000000  -0.000000  -0.000000
    22  H   -0.000000  -0.000000  -0.000000  -0.000000   0.000000  -0.000000
    23  H    0.000000  -0.000000  -0.000000   0.000000   0.000000  -0.000000
    24  C    0.000003   0.000000   0.000070   0.000002  -0.000032   0.000003
    25  H   -0.000000  -0.000002  -0.000002  -0.000000   0.000000  -0.000001
    26  C   -0.000097   0.000027  -0.004367  -0.000116   0.000690  -0.000212
    27  H   -0.000010   0.000012   0.001215  -0.000044   0.000070  -0.000251
    28  H   -0.000025   0.000093   0.000514   0.000004  -0.000030  -0.000008
              13         14         15         16         17         18
     1  C    0.000227   0.000232   0.000597  -0.000041  -0.000053   0.000077
     2  H    0.000028  -0.000010  -0.000016   0.000000  -0.000012  -0.000001
     3  H    0.000172  -0.000034   0.000160   0.000014  -0.000052  -0.000076
     4  C   -0.001413   0.000594  -0.000017   0.000001  -0.000027  -0.000002
     5  C   -0.000116  -0.000100  -0.000000  -0.000000  -0.000000   0.000000
     6  H   -0.000005   0.000015  -0.000000   0.000000   0.000000   0.000000
     7  H   -0.000004  -0.000009  -0.000000   0.000000   0.000000  -0.000000
     8  H    0.000021  -0.000004  -0.000000   0.000000  -0.000000  -0.000000
     9  C   -0.044352  -0.042842   0.000010   0.000000  -0.000032   0.000000
    10  H   -0.000221  -0.002647  -0.000000   0.000000   0.000000  -0.000000
    11  C    0.400032   0.403002  -0.000097   0.000002   0.000040  -0.000003
    12  H   -0.026864  -0.030018   0.000010  -0.000006   0.000571   0.000034
    13  H    0.584241  -0.033274   0.000002   0.000000  -0.000008  -0.000000
    14  H   -0.033274   0.586815  -0.000004  -0.000000   0.000042   0.000000
    15  C    0.000002  -0.000004   4.909243   0.398274   0.406143   0.402441
    16  H    0.000000  -0.000000   0.398274   0.582513  -0.026278  -0.033091
    17  H   -0.000008   0.000042   0.406143  -0.026278   0.568206  -0.030013
    18  H   -0.000000   0.000000   0.402441  -0.033091  -0.030013   0.586194
    19  C   -0.000000   0.000000   0.348390  -0.043824  -0.037058  -0.043926
    20  C    0.000000  -0.000000  -0.065382  -0.001684   0.003678  -0.003430
    21  H    0.000000  -0.000000  -0.001106   0.002552  -0.000023  -0.000507
    22  H   -0.000000   0.000000  -0.002141  -0.000371  -0.000072   0.002846
    23  H   -0.000000  -0.000000   0.003696  -0.000079  -0.000108   0.000010
    24  C    0.000002  -0.000004  -0.043324  -0.000842  -0.002869   0.000448
    25  H    0.000000   0.000000   0.003366  -0.000126   0.000059  -0.000110
    26  C   -0.000050   0.000091  -0.007533   0.000188  -0.001945   0.000286
    27  H    0.000023  -0.000079  -0.002064   0.000056  -0.001169  -0.000043
    28  H   -0.000000   0.000000   0.000169   0.000032   0.000031  -0.000012
              19         20         21         22         23         24
     1  C   -0.003608  -0.000101  -0.000004   0.000022  -0.000003  -0.063065
     2  H    0.000615  -0.000000   0.000000  -0.000001   0.000002  -0.000608
     3  H    0.001046  -0.000042   0.000001  -0.000005  -0.000002  -0.000807
     4  C    0.000006   0.000002   0.000000  -0.000000   0.000000   0.006130
     5  C   -0.000002  -0.000000  -0.000000   0.000000  -0.000000  -0.000158
     6  H    0.000000  -0.000000   0.000000   0.000000  -0.000000  -0.000086
     7  H    0.000000   0.000000   0.000000  -0.000000   0.000000   0.000003
     8  H    0.000000  -0.000000   0.000000  -0.000000  -0.000000   0.000000
     9  C    0.000001  -0.000000   0.000000  -0.000000  -0.000000   0.000070
    10  H    0.000000   0.000000   0.000000  -0.000000   0.000000   0.000002
    11  C    0.000007  -0.000000  -0.000000   0.000000   0.000000  -0.000032
    12  H   -0.000013   0.000000  -0.000000  -0.000000  -0.000000   0.000003
    13  H   -0.000000   0.000000   0.000000  -0.000000  -0.000000   0.000002
    14  H    0.000000  -0.000000  -0.000000   0.000000  -0.000000  -0.000004
    15  C    0.348390  -0.065382  -0.001106  -0.002141   0.003696  -0.043324
    16  H   -0.043824  -0.001684   0.002552  -0.000371  -0.000079  -0.000842
    17  H   -0.037058   0.003678  -0.000023  -0.000072  -0.000108  -0.002869
    18  H   -0.043926  -0.003430  -0.000507   0.002846   0.000010   0.000448
    19  C    4.918207   0.352285  -0.045760  -0.044302  -0.040401   0.698192
    20  C    0.352285   4.903238   0.399263   0.396988   0.405431  -0.044859
    21  H   -0.045760   0.399263   0.593058  -0.034894  -0.027563  -0.001136
    22  H   -0.044302   0.396988  -0.034894   0.594305  -0.027373  -0.000547
    23  H   -0.040401   0.405431  -0.027563  -0.027373   0.568028  -0.002386
    24  C    0.698192  -0.044859  -0.001136  -0.000547  -0.002386   4.961510
    25  H   -0.036147  -0.006751   0.000150   0.000235   0.002178   0.402006
    26  C   -0.048259   0.003152  -0.000124  -0.000086   0.000146   0.339913
    27  H    0.000824   0.000071   0.000004  -0.000004   0.000006  -0.043822
    28  H    0.000913  -0.000102   0.000012  -0.000002  -0.000011  -0.043345
              25         26         27         28
     1  C    0.000004   0.326235  -0.040294  -0.045136
     2  H    0.001004  -0.044599   0.004203  -0.002603
     3  H    0.000213  -0.039862  -0.002145   0.004291
     4  C   -0.000155  -0.057362  -0.001438  -0.001852
     5  C    0.000010  -0.000188   0.000317  -0.000392
     6  H    0.000012   0.000810  -0.000009  -0.000187
     7  H   -0.000000  -0.000097  -0.000010  -0.000025
     8  H   -0.000002   0.000027   0.000012   0.000093
     9  C   -0.000002  -0.004367   0.001215   0.000514
    10  H   -0.000000  -0.000116  -0.000044   0.000004
    11  C    0.000000   0.000690   0.000070  -0.000030
    12  H   -0.000001  -0.000212  -0.000251  -0.000008
    13  H    0.000000  -0.000050   0.000023  -0.000000
    14  H    0.000000   0.000091  -0.000079   0.000000
    15  C    0.003366  -0.007533  -0.002064   0.000169
    16  H   -0.000126   0.000188   0.000056   0.000032
    17  H    0.000059  -0.001945  -0.001169   0.000031
    18  H   -0.000110   0.000286  -0.000043  -0.000012
    19  C   -0.036147  -0.048259   0.000824   0.000913
    20  C   -0.006751   0.003152   0.000071  -0.000102
    21  H    0.000150  -0.000124   0.000004   0.000012
    22  H    0.000235  -0.000086  -0.000004  -0.000002
    23  H    0.002178   0.000146   0.000006  -0.000011
    24  C    0.402006   0.339913  -0.043822  -0.043345
    25  H    0.558550  -0.041272   0.003231  -0.003486
    26  C   -0.041272   4.982322   0.414876   0.413772
    27  H    0.003231   0.414876   0.571236  -0.029595
    28  H   -0.003486   0.413772  -0.029595   0.588488
 Mulliken charges:
               1
     1  C   -0.234016
     2  H    0.115674
     3  H    0.126392
     4  C    0.015503
     5  C   -0.339901
     6  H    0.115160
     7  H    0.116753
     8  H    0.115797
     9  C   -0.155185
    10  H    0.116520
    11  C   -0.355608
    12  H    0.116932
    13  H    0.121559
    14  H    0.118233
    15  C   -0.350813
    16  H    0.122712
    17  H    0.120949
    18  H    0.118878
    19  C    0.022816
    20  C   -0.341756
    21  H    0.116075
    22  H    0.115402
    23  H    0.118428
    24  C   -0.160390
    25  H    0.117034
    26  C   -0.236438
    27  H    0.124823
    28  H    0.118467
 Sum of Mulliken charges =  -0.00000
 Mulliken charges with hydrogens summed into heavy atoms:
               1
     1  C    0.008051
     4  C    0.015503
     5  C    0.007809
     9  C   -0.038665
    11  C    0.001116
    15  C    0.011726
    19  C    0.022816
    20  C    0.008149
    24  C   -0.043356
    26  C    0.006852
 Electronic spatial extent (au):  <R**2>=           2423.6572
 Charge=              0.0000 electrons
 Dipole moment (field-independent basis, Debye):
    X=             -0.2950    Y=              0.1261    Z=             -0.0060  Tot=              0.3208
 Quadrupole moment (field-independent basis, Debye-Ang):
   XX=            -64.5119   YY=            -63.6039   ZZ=            -67.0539
   XY=             -0.6104   XZ=             -0.8627   YZ=             -0.4852
 Traceless Quadrupole moment (field-independent basis, Debye-Ang):
   XX=              0.5447   YY=              1.4526   ZZ=             -1.9973
   XY=             -0.6104   XZ=             -0.8627   YZ=             -0.4852
 Octapole moment (field-independent basis, Debye-Ang**2):
  XXX=             -1.3678  YYY=             -2.7199  ZZZ=              0.1852  XYY=              0.5704
  XXY=              4.5352  XXZ=             -2.6549  XZZ=             -1.5771  YZZ=              1.2281
  YYZ=              1.3705  XYZ=              0.7524
 Hexadecapole moment (field-independent basis, Debye-Ang**3):
 XXXX=          -2492.2971 YYYY=           -696.1065 ZZZZ=           -174.8238 XXXY=              2.3560
 XXXZ=            -11.9333 YYYX=              9.3548 YYYZ=             -3.0484 ZZZX=              0.8369
 ZZZY=             -0.0646 XXYY=           -530.4783 XXZZ=           -456.3148 YYZZ=           -139.1695
 XXYZ=             -4.2399 YYXZ=             -3.1988 ZZXY=             -4.6981
 N-N= 5.164364843173D+02 E-N=-1.937506925665D+03  KE= 3.886261432325D+02
 No NMR shielding tensors so no spin-rotation constants.
 Leave Link  601 at Fri Sep 17 13:36:27 2021, MaxMem=   524288000 cpu:               0.2 elap:               0.2
 (Enter /opt/gaussian/g16_legacy/l701.exe)
 ... and contract with generalized density number  2.
 Compute integral first derivatives.
 Leave Link  701 at Fri Sep 17 13:36:27 2021, MaxMem=   524288000 cpu:               0.2 elap:               0.1
 (Enter /opt/gaussian/g16_legacy/l702.exe)
 L702 exits ... SP integral derivatives will be done elsewhere.
 Leave Link  702 at Fri Sep 17 13:36:27 2021, MaxMem=   524288000 cpu:               0.0 elap:               0.0
 (Enter /opt/gaussian/g16_legacy/l703.exe)
 Integral derivatives from FoFJK, PRISM(SPDF).
 Compute integral first derivatives, UseDBF=F ICtDFT=           0.
 Calling FoFJK, ICntrl=  10002127 FMM=F ISym2X=0 I1Cent= 0 IOpClX= 0 NMat=1 NMatS=1 NMatT=0.
 FoFJK:  IHMeth= 1 ICntrl=10002127 DoSepK=F KAlg= 0 I1Cent=           0 FoldK=F
 IRaf=         0 NMat=       1 IRICut=       1 DoRegI=T DoRafI=F ISym2E= 0 IDoP0=0 IntGTp=1.
 FoFCou: FMM=F IPFlag=           0 FMFlag=      100000 FMFlg1=         800
         NFxFlg=           0 DoJE=F BraDBF=F KetDBF=F FulRan=T
         wScrn=  0.000000 ICntrl=  10002127 IOpCl=  0 I1Cent=           0 NGrid=           0
         NMat0=    1 NMatS0=      1 NMatT0=    0 NMatD0=    1 NMtDS0=    0 NMtDT0=    0
 Symmetry not used in FoFCou.
 Leave Link  703 at Fri Sep 17 13:36:46 2021, MaxMem=   524288000 cpu:              18.5 elap:              18.5
 (Enter /opt/gaussian/g16_legacy/l716.exe)
 Dipole        =-9.11537379D-02 6.68604480D-02-4.78456696D-03
 ***** Axes restored to original set *****
 -------------------------------------------------------------------
 Center     Atomic                   Forces (Hartrees/Bohr)
 Number     Number              X              Y              Z
 -------------------------------------------------------------------
      1        6           0.008493186    0.001530736    0.004046806
      2        1          -0.000045002    0.002113121   -0.003119029
      3        1          -0.000861863    0.000894253   -0.004503835
      4        6           0.003731512   -0.004165604    0.003212328
      5        6           0.002906787    0.000287866   -0.001171155
      6        1           0.000294606   -0.002558769    0.002148838
      7        1          -0.003423341    0.001673789    0.001475915
      8        1          -0.001458325    0.000958499   -0.002925112
      9        6          -0.002438587   -0.000372840   -0.002859135
     10        1          -0.002870837   -0.002036179   -0.000568920
     11        6          -0.001388817    0.002118224    0.000987507
     12        1           0.002493042   -0.002198447   -0.000369215
     13        1          -0.001034407    0.003070659   -0.001094170
     14        1           0.000058403   -0.001033081    0.003314105
     15        6           0.004461347    0.000606222   -0.001000388
     16        1           0.000475366    0.000524376    0.003052826
     17        1          -0.002976628   -0.001617307   -0.000823768
     18        1          -0.001873445    0.000085207   -0.003159538
     19        6          -0.000175701   -0.004858205    0.002040141
     20        6          -0.000644050   -0.003323012    0.000140060
     21        1           0.000419927    0.000075642    0.003343135
     22        1          -0.001837165    0.001485607   -0.002645791
     23        1           0.002871773    0.003199051   -0.000373159
     24        6           0.000908098    0.000227897   -0.005161966
     25        1          -0.001111060    0.002794378    0.001669019
     26        6          -0.007409336    0.002226257   -0.001747062
     27        1           0.000338136   -0.002093159    0.003434164
     28        1           0.002096383    0.000384817    0.002657398
 -------------------------------------------------------------------
 Cartesian Forces:  Max     0.008493186 RMS     0.002572653
 Leave Link  716 at Fri Sep 17 13:36:46 2021, MaxMem=   524288000 cpu:               0.0 elap:               0.0
 (Enter /opt/gaussian/g16_legacy/l103.exe)

 GradGradGradGradGradGradGradGradGradGradGradGradGradGradGradGradGradGrad
 Berny optimization.
 FormGI is forming the generalized inverse of G from B-inverse, IUseBI=4.
 Internal  Forces:  Max     0.004895101 RMS     0.001916929
 Search for a local minimum.
 Step number   1 out of a maximum of  138
 All quantities printed in internal units (Hartrees-Bohrs-Radians)
 RMS Force = .19169D-02 SwitMx=.10000D-02 MixMth= 1
 Mixed Optimization -- RFO/linear search
 Second derivative matrix not updated -- first step.
 ITU=  0
     Eigenvalues ---    0.00343   0.00569   0.00671   0.00680   0.00693
     Eigenvalues ---    0.00714   0.00818   0.01219   0.01287   0.01569
     Eigenvalues ---    0.01641   0.02779   0.02785   0.04018   0.04138
     Eigenvalues ---    0.05349   0.05399   0.06978   0.07035   0.07090
     Eigenvalues ---    0.07093   0.07269   0.07301   0.07347   0.07504
     Eigenvalues ---    0.09277   0.09361   0.12767   0.12842   0.15999
     Eigenvalues ---    0.15999   0.16000   0.16000   0.16000   0.16000
     Eigenvalues ---    0.16000   0.16000   0.16000   0.16000   0.16000
     Eigenvalues ---    0.16000   0.16000   0.16000   0.21859   0.21866
     Eigenvalues ---    0.22000   0.22000   0.24994   0.24997   0.24998
     Eigenvalues ---    0.24999   0.29241   0.30867   0.31635   0.31707
     Eigenvalues ---    0.31804   0.31967   0.32792   0.33876   0.33969
     Eigenvalues ---    0.34064   0.34194   0.34225   0.34235   0.34242
     Eigenvalues ---    0.34245   0.34245   0.34246   0.34258   0.34269
     Eigenvalues ---    0.34302   0.34341   0.34542   0.34558   0.34790
     Eigenvalues ---    0.34852   0.55495   0.55587
 RFO step:  Lambda=-2.95870208D-03 EMin= 3.42893880D-03
 Linear search not attempted -- first point.
 Iteration  1 RMS(Cart)=  0.03969611 RMS(Int)=  0.00072302
 Iteration  2 RMS(Cart)=  0.00093479 RMS(Int)=  0.00016604
 Iteration  3 RMS(Cart)=  0.00000043 RMS(Int)=  0.00016604
 ITry= 1 IFail=0 DXMaxC= 1.76D-01 DCOld= 1.00D+10 DXMaxT= 3.00D-01 DXLimC= 3.00D+00 Rises=F
 Variable       Old X    -DE/DX   Delta X   Delta X   Delta X     New X
                                 (Linear)    (Quad)   (Total)
    R1        2.07540  -0.00273   0.00000  -0.00799  -0.00799   2.06742
    R2        2.07222  -0.00331   0.00000  -0.00962  -0.00962   2.06260
    R3        2.86266  -0.00355   0.00000  -0.01139  -0.01139   2.85127
    R4        2.89503   0.00174   0.00000   0.00589   0.00589   2.90091
    R5        2.84816  -0.00044   0.00000  -0.00137  -0.00137   2.84680
    R6        2.54695  -0.00398   0.00000  -0.00713  -0.00713   2.53982
    R7        2.06824  -0.00176   0.00000  -0.00509  -0.00509   2.06315
    R8        2.06951  -0.00369   0.00000  -0.01069  -0.01069   2.05882
    R9        2.06923  -0.00220   0.00000  -0.00637  -0.00637   2.06286
   R10        2.05915  -0.00219   0.00000  -0.00623  -0.00623   2.05292
   R11        2.82718   0.00309   0.00000   0.00933   0.00933   2.83651
   R12        2.06398  -0.00288   0.00000  -0.00826  -0.00826   2.05573
   R13        2.06759  -0.00154   0.00000  -0.00446  -0.00446   2.06313
   R14        2.06897  -0.00261   0.00000  -0.00756  -0.00756   2.06141
   R15        2.06878  -0.00184   0.00000  -0.00533  -0.00533   2.06345
   R16        2.06424  -0.00286   0.00000  -0.00822  -0.00822   2.05602
   R17        2.07005  -0.00265   0.00000  -0.00768  -0.00768   2.06237
   R18        2.84204  -0.00050   0.00000  -0.00154  -0.00154   2.84050
   R19        2.84683  -0.00077   0.00000  -0.00241  -0.00241   2.84442
   R20        2.54614  -0.00319   0.00000  -0.00571  -0.00571   2.54043
   R21        2.06918  -0.00201   0.00000  -0.00582  -0.00582   2.06335
   R22        2.06919  -0.00201   0.00000  -0.00583  -0.00583   2.06336
   R23        2.06936  -0.00392   0.00000  -0.01136  -0.01136   2.05800
   R24        2.06017  -0.00202   0.00000  -0.00575  -0.00575   2.05442
   R25        2.84504  -0.00150   0.00000  -0.00469  -0.00469   2.84036
   R26        2.06919  -0.00278   0.00000  -0.00806  -0.00806   2.06113
   R27        2.07382  -0.00240   0.00000  -0.00699  -0.00699   2.06683
    A1        1.83001   0.00206   0.00000   0.02241   0.02225   1.85225
    A2        1.90264  -0.00069   0.00000  -0.00273  -0.00273   1.89991
    A3        1.92008  -0.00194   0.00000  -0.01725  -0.01728   1.90280
    A4        1.93009   0.00043   0.00000   0.00930   0.00934   1.93942
    A5        1.91830  -0.00277   0.00000  -0.02015  -0.02019   1.89811
    A6        1.95838   0.00283   0.00000   0.00909   0.00914   1.96751
    A7        2.00831   0.00237   0.00000   0.00967   0.00910   2.01741
    A8        2.17076  -0.00490   0.00000  -0.01899  -0.01952   2.15124
    A9        2.10394   0.00254   0.00000   0.01042   0.00984   2.11378
   A10        1.92809   0.00227   0.00000   0.01214   0.01216   1.94025
   A11        1.95930  -0.00262   0.00000  -0.01312  -0.01308   1.94621
   A12        1.92475   0.00166   0.00000   0.00907   0.00909   1.93383
   A13        1.87712   0.00054   0.00000   0.00555   0.00559   1.88271
   A14        1.89486  -0.00307   0.00000  -0.02465  -0.02464   1.87022
   A15        1.87757   0.00109   0.00000   0.01017   0.01020   1.88777
   A16        2.06980  -0.00195   0.00000  -0.01348  -0.01349   2.05631
   A17        2.22506  -0.00187   0.00000  -0.00833  -0.00835   2.21671
   A18        1.98818   0.00382   0.00000   0.02198   0.02196   2.01014
   A19        1.98128  -0.00300   0.00000  -0.01846  -0.01837   1.96291
   A20        1.91730   0.00394   0.00000   0.02325   0.02321   1.94051
   A21        1.91001   0.00238   0.00000   0.01560   0.01555   1.92556
   A22        1.89279  -0.00094   0.00000  -0.00754  -0.00745   1.88534
   A23        1.87265   0.00053   0.00000   0.00496   0.00503   1.87768
   A24        1.88719  -0.00309   0.00000  -0.01889  -0.01906   1.86813
   A25        1.88439   0.00024   0.00000   0.00330   0.00332   1.88772
   A26        1.89076  -0.00241   0.00000  -0.02168  -0.02166   1.86910
   A27        1.92159   0.00231   0.00000   0.01170   0.01173   1.93331
   A28        1.86368   0.00200   0.00000   0.01699   0.01701   1.88068
   A29        1.97972  -0.00222   0.00000  -0.01021  -0.01019   1.96953
   A30        1.92081   0.00000   0.00000  -0.00089  -0.00088   1.91993
   A31        1.99464   0.00147   0.00000   0.00584   0.00582   2.00046
   A32        2.18264  -0.00329   0.00000  -0.01296  -0.01298   2.16966
   A33        2.10586   0.00182   0.00000   0.00723   0.00721   2.11307
   A34        1.92350   0.00174   0.00000   0.00871   0.00873   1.93224
   A35        1.92490   0.00220   0.00000   0.01236   0.01238   1.93729
   A36        1.96054  -0.00276   0.00000  -0.01377  -0.01373   1.94681
   A37        1.89491  -0.00313   0.00000  -0.02546  -0.02545   1.86946
   A38        1.87884   0.00092   0.00000   0.00791   0.00795   1.88679
   A39        1.87914   0.00092   0.00000   0.00940   0.00944   1.88858
   A40        2.06707  -0.00166   0.00000  -0.01177  -0.01217   2.05490
   A41        2.22722  -0.00226   0.00000  -0.00998  -0.01040   2.21682
   A42        1.98877   0.00394   0.00000   0.02255   0.02212   2.01089
   A43        1.94450   0.00330   0.00000   0.01365   0.01367   1.95817
   A44        1.92601  -0.00264   0.00000  -0.02490  -0.02497   1.90104
   A45        1.92088  -0.00238   0.00000  -0.01474  -0.01494   1.90594
   A46        1.94654  -0.00052   0.00000  -0.00237  -0.00232   1.94422
   A47        1.88066   0.00060   0.00000   0.01700   0.01705   1.89771
   A48        1.84192   0.00155   0.00000   0.01188   0.01162   1.85354
    D1        0.63965  -0.00059   0.00000   0.02152   0.02127   0.66092
    D2       -2.48157  -0.00156   0.00000  -0.04065  -0.04045  -2.52202
    D3        2.64281   0.00174   0.00000   0.05205   0.05183   2.69465
    D4       -0.47840   0.00076   0.00000  -0.01012  -0.00989  -0.48830
[...]
                 (A) (A) (A) (A) (A) (A) (A) (A) (A) (A) (A) (A)
                 (A) (A) (A) (A) (A) (A) (A) (A) (A) (A) (A) (A)
                 (A) (A) (A) (A) (A) (A) (A) (A) (A) (A) (A) (A)
                 (A) (A) (A) (A) (A) (A) (A) (A) (A) (A) (A) (A)
                 (A) (A) (A) (A) (A) (A) (A) (A) (A) (A) (A) (A)
                 (A) (A) (A) (A) (A) (A) (A) (A) (A) (A) (A) (A)
                 (A) (A) (A) (A) (A) (A) (A) (A) (A) (A) (A) (A)
                 (A) (A) (A) (A) (A) (A) (A) (A) (A) (A) (A) (A)
                 (A) (A) (A) (A) (A) (A) (A) (A) (A) (A) (A) (A)
                 (A) (A) (A) (A) (A) (A) (A) (A) (A) (A) (A) (A)
                 (A) (A) (A) (A) (A) (A) (A) (A) (A) (A) (A) (A)
                 (A) (A) (A) (A) (A) (A) (A) (A) (A)
 The electronic state is 1-A.
 Alpha  occ. eigenvalues --  -11.23020 -11.22460 -11.21868 -11.21729 -11.21712
 Alpha  occ. eigenvalues --  -11.21539 -11.21506 -11.21436 -11.21417 -11.21348
 Alpha  occ. eigenvalues --   -1.10821  -1.08492  -1.01823  -0.98143  -0.93838
 Alpha  occ. eigenvalues --   -0.91939  -0.86963  -0.82855  -0.70494  -0.69519
 Alpha  occ. eigenvalues --   -0.64988  -0.61512  -0.60591  -0.58878  -0.58366
 Alpha  occ. eigenvalues --   -0.56774  -0.55298  -0.54966  -0.53295  -0.52261
 Alpha  occ. eigenvalues --   -0.51859  -0.51173  -0.50832  -0.49581  -0.48519
 Alpha  occ. eigenvalues --   -0.46073  -0.44624  -0.33371  -0.31514
 Alpha virt. eigenvalues --    0.18142   0.19779   0.22152   0.24486   0.25192
 Alpha virt. eigenvalues --    0.27439   0.28535   0.28922   0.30318   0.30811
 Alpha virt. eigenvalues --    0.31477   0.32261   0.33202   0.33794   0.34383
 Alpha virt. eigenvalues --    0.35458   0.36114   0.36962   0.39185   0.40602
 Alpha virt. eigenvalues --    0.41328   0.42631   0.43685   0.44253   0.45395
 Alpha virt. eigenvalues --    0.51702   0.54378   0.61070   0.62576   0.70520
 Alpha virt. eigenvalues --    0.71073   0.72196   0.73768   0.76075   0.76177
 Alpha virt. eigenvalues --    0.76620   0.79010   0.79474   0.81070   0.82306
 Alpha virt. eigenvalues --    0.83713   0.85579   0.89117   0.91091   0.91343
 Alpha virt. eigenvalues --    0.92820   0.94745   0.97065   0.98284   0.98818
 Alpha virt. eigenvalues --    0.99710   1.00468   1.01911   1.03844   1.06577
 Alpha virt. eigenvalues --    1.08019   1.08221   1.09393   1.11664   1.12687
 Alpha virt. eigenvalues --    1.13026   1.13870   1.14856   1.15402   1.16045
 Alpha virt. eigenvalues --    1.16257   1.16619   1.18722   1.19116   1.20671
 Alpha virt. eigenvalues --    1.20953   1.23032   1.23885   1.25765   1.28153
 Alpha virt. eigenvalues --    1.34331   1.41723   1.42153   1.44890   1.46395
 Alpha virt. eigenvalues --    1.48456   1.54136   1.55360   1.57256   1.58165
 Alpha virt. eigenvalues --    1.61459   1.63397   1.66485   1.69046   1.69645
 Alpha virt. eigenvalues --    1.73917   1.82243   1.91111   1.93363   1.96231
 Alpha virt. eigenvalues --    1.98688   2.01467   2.02277   2.03942   2.08565
 Alpha virt. eigenvalues --    2.09706   2.10748   2.11744   2.13037   2.14903
 Alpha virt. eigenvalues --    2.15780   2.16940   2.19854   2.23666   2.28347
 Alpha virt. eigenvalues --    2.29590   2.30325   2.33235   2.35347   2.35688
 Alpha virt. eigenvalues --    2.35978   2.36098   2.38923   2.40264   2.41259
 Alpha virt. eigenvalues --    2.42195   2.43169   2.44154   2.45371   2.46084
 Alpha virt. eigenvalues --    2.47201   2.49167   2.49622   2.51174   2.54099
 Alpha virt. eigenvalues --    2.57315   2.58365   2.61888   2.63241   2.64107
 Alpha virt. eigenvalues --    2.67127   2.68175   2.71776   2.73352   2.73474
 Alpha virt. eigenvalues --    2.75815   2.77410   2.80796   2.82634   2.85354
 Alpha virt. eigenvalues --    2.87137   2.89441   2.92178   2.93739   2.94867
 Alpha virt. eigenvalues --    2.97869   2.99094   3.00960   3.02677   3.05807
 Alpha virt. eigenvalues --    3.06402   3.07703   3.09315   3.13762   3.17093
 Alpha virt. eigenvalues --    3.17589   3.19238   3.20046   3.21242   3.22334
 Alpha virt. eigenvalues --    3.24167   3.25050   3.26607   3.27420   3.37866
 Alpha virt. eigenvalues --    3.40355   3.46023   3.46902   3.56200   3.58183
 Alpha virt. eigenvalues --    3.59499   3.62406   3.67928   3.75494   3.78622
 Alpha virt. eigenvalues --    3.80005   3.81570   3.82569   3.83286   3.83898
 Alpha virt. eigenvalues --    3.84750   3.86481   3.87645   3.89820   3.91558
 Alpha virt. eigenvalues --    3.97645   4.59389   4.63170   4.74472   4.82572
 Alpha virt. eigenvalues --    4.88928   4.92582   4.93409   5.07840   5.10766
 Alpha virt. eigenvalues --    5.17766
          Condensed to atoms (all electrons):
               1          2          3          4          5          6
     1  C    5.004768   0.414473   0.411714   0.337355  -0.056085   0.000011
     2  H    0.414473   0.587507  -0.028296  -0.046308  -0.004587  -0.000489
     3  H    0.411714  -0.028296   0.572983  -0.038988   0.003071  -0.000005
     4  C    0.337355  -0.046308  -0.038988   4.952603   0.351934  -0.045679
     5  C   -0.056085  -0.004587   0.003071   0.351934   4.891804   0.400946
     6  H    0.000011  -0.000489  -0.000005  -0.045679   0.400946   0.596034
     7  H    0.003801   0.000106  -0.000108  -0.042765   0.407087  -0.027466
     8  H   -0.003698   0.002378  -0.000034  -0.041506   0.397495  -0.037541
     9  C   -0.047991   0.002531  -0.001860   0.697840  -0.046054  -0.001011
    10  H    0.003272  -0.000118   0.000031  -0.037842  -0.006525   0.000135
    11  C   -0.007749   0.000160  -0.002811  -0.050271   0.003364  -0.000101
    12  H   -0.001745   0.000030  -0.001657  -0.000691   0.000109  -0.000003
    13  H    0.000152   0.000017   0.000184  -0.000627  -0.000106  -0.000004
    14  H    0.000310  -0.000013  -0.000067  -0.000247  -0.000095   0.000017
    15  C    0.000587  -0.000015   0.000200  -0.000018  -0.000000  -0.000000
    16  H   -0.000040   0.000000   0.000022   0.000001  -0.000000  -0.000000
    17  H   -0.000302  -0.000016  -0.000131  -0.000011  -0.000000   0.000000
    18  H    0.000130  -0.000002  -0.000135  -0.000005   0.000000   0.000000
    19  C   -0.004325   0.000787   0.001388   0.000041  -0.000003   0.000000
    20  C   -0.000099  -0.000004  -0.000043   0.000001  -0.000000  -0.000000
    21  H   -0.000005   0.000000   0.000002   0.000000  -0.000000   0.000000
    22  H    0.000024  -0.000002  -0.000007  -0.000000   0.000000   0.000000
    23  H   -0.000003   0.000003  -0.000002   0.000000  -0.000000  -0.000000
    24  C   -0.061827  -0.000900  -0.000504   0.006443  -0.000149  -0.000111
    25  H    0.000175   0.001011   0.000111  -0.000152   0.000010   0.000015
    26  C    0.332330  -0.046074  -0.041801  -0.055544  -0.000661   0.000609
    27  H   -0.042369   0.004477  -0.003118  -0.001813   0.000243  -0.000015
    28  H   -0.046841  -0.001931   0.004515  -0.002075  -0.000289   0.000197
               7          8          9         10         11         12
     1  C    0.003801  -0.003698  -0.047991   0.003272  -0.007749  -0.001745
     2  H    0.000106   0.002378   0.002531  -0.000118   0.000160   0.000030
     3  H   -0.000108  -0.000034  -0.001860   0.000031  -0.002811  -0.001657
     4  C   -0.042765  -0.041506   0.697840  -0.037842  -0.050271  -0.000691
     5  C    0.407087   0.397495  -0.046054  -0.006525   0.003364   0.000109
     6  H   -0.027466  -0.037541  -0.001011   0.000135  -0.000101  -0.000003
     7  H    0.568858  -0.026764  -0.002890   0.002385   0.000132   0.000005
     8  H   -0.026764   0.591921  -0.000373   0.000216  -0.000105   0.000002
     9  C   -0.002890  -0.000373   4.938971   0.404494   0.340494  -0.043903
    10  H    0.002385   0.000216   0.404494   0.558671  -0.041279   0.003299
    11  C    0.000132  -0.000105   0.340494  -0.041279   4.900974   0.409079
    12  H    0.000005   0.000002  -0.043903   0.003299   0.409079   0.577164
    13  H   -0.000006   0.000017  -0.041523  -0.001122   0.401144  -0.027132
    14  H   -0.000006  -0.000004  -0.041805  -0.001264   0.402169  -0.029956
    15  C   -0.000000   0.000000   0.000015  -0.000000  -0.000147  -0.000000
    16  H    0.000000   0.000000   0.000000   0.000000   0.000003  -0.000008
    17  H    0.000000  -0.000000  -0.000045   0.000000   0.000074   0.000412
    18  H   -0.000000  -0.000000   0.000000  -0.000000  -0.000009   0.000079
    19  C    0.000000   0.000000  -0.000001   0.000000   0.000013  -0.000026
    20  C    0.000000  -0.000000  -0.000000   0.000000  -0.000000   0.000000
    21  H    0.000000   0.000000   0.000000   0.000000   0.000000  -0.000000
    22  H   -0.000000  -0.000000   0.000000  -0.000000  -0.000000  -0.000000
    23  H    0.000000  -0.000000  -0.000000   0.000000   0.000000  -0.000000
    24  C    0.000004   0.000004   0.000114   0.000002  -0.000031   0.000026
    25  H   -0.000000  -0.000001  -0.000002  -0.000000   0.000000  -0.000002
    26  C   -0.000109   0.000086  -0.004911  -0.000113   0.000577  -0.000737
    27  H   -0.000005   0.000006   0.001406  -0.000046  -0.000082  -0.000475
    28  H   -0.000050   0.000058   0.000760   0.000001  -0.000033  -0.000010
              13         14         15         16         17         18
     1  C    0.000152   0.000310   0.000587  -0.000040  -0.000302   0.000130
     2  H    0.000017  -0.000013  -0.000015   0.000000  -0.000016  -0.000002
     3  H    0.000184  -0.000067   0.000200   0.000022  -0.000131  -0.000135
     4  C   -0.000627  -0.000247  -0.000018   0.000001  -0.000011  -0.000005
     5  C   -0.000106  -0.000095  -0.000000  -0.000000  -0.000000   0.000000
     6  H   -0.000004   0.000017  -0.000000  -0.000000   0.000000   0.000000
     7  H   -0.000006  -0.000006  -0.000000   0.000000   0.000000  -0.000000
     8  H    0.000017  -0.000004   0.000000   0.000000  -0.000000  -0.000000
     9  C   -0.041523  -0.041805   0.000015   0.000000  -0.000045   0.000000
    10  H   -0.001122  -0.001264  -0.000000   0.000000   0.000000  -0.000000
    11  C    0.401144   0.402169  -0.000147   0.000003   0.000074  -0.000009
    12  H   -0.027132  -0.029956  -0.000000  -0.000008   0.000412   0.000079
    13  H    0.583648  -0.035462   0.000004   0.000000  -0.000013  -0.000000
    14  H   -0.035462   0.586720  -0.000015  -0.000000   0.000114   0.000000
    15  C    0.000004  -0.000015   4.907254   0.399852   0.407154   0.401208
    16  H    0.000000  -0.000000   0.399852   0.584669  -0.026060  -0.035759
    17  H   -0.000013   0.000114   0.407154  -0.026060   0.568221  -0.028659
    18  H   -0.000000   0.000000   0.401208  -0.035759  -0.028659   0.587442
    19  C   -0.000000   0.000001   0.350333  -0.043537  -0.037848  -0.043385
    20  C    0.000000  -0.000000  -0.064931  -0.002223   0.003725  -0.002632
    21  H    0.000000  -0.000000  -0.001201   0.002766  -0.000031  -0.000476
    22  H   -0.000000   0.000000  -0.001975  -0.000456  -0.000068   0.002756
    23  H   -0.000000  -0.000000   0.003785  -0.000053  -0.000113  -0.000032
    24  C    0.000002  -0.000009  -0.044248  -0.000365  -0.003253  -0.000031
    25  H    0.000000   0.000000   0.003528  -0.000121   0.000061  -0.000121
    26  C   -0.000037   0.000163  -0.008144   0.000117  -0.002069   0.000367
    27  H    0.000037  -0.000140  -0.002693   0.000113  -0.001675  -0.000076
    28  H   -0.000000  -0.000000   0.000195   0.000021   0.000058  -0.000014
              19         20         21         22         23         24
     1  C   -0.004325  -0.000099  -0.000005   0.000024  -0.000003  -0.061827
     2  H    0.000787  -0.000004   0.000000  -0.000002   0.000003  -0.000900
     3  H    0.001388  -0.000043   0.000002  -0.000007  -0.000002  -0.000504
     4  C    0.000041   0.000001   0.000000  -0.000000   0.000000   0.006443
     5  C   -0.000003  -0.000000  -0.000000   0.000000  -0.000000  -0.000149
     6  H    0.000000  -0.000000   0.000000   0.000000  -0.000000  -0.000111
     7  H    0.000000   0.000000   0.000000  -0.000000   0.000000   0.000004
     8  H    0.000000  -0.000000   0.000000  -0.000000  -0.000000   0.000004
     9  C   -0.000001  -0.000000   0.000000   0.000000  -0.000000   0.000114
    10  H    0.000000   0.000000   0.000000  -0.000000   0.000000   0.000002
    11  C    0.000013  -0.000000   0.000000  -0.000000   0.000000  -0.000031
    12  H   -0.000026   0.000000  -0.000000  -0.000000  -0.000000   0.000026
    13  H   -0.000000   0.000000   0.000000  -0.000000  -0.000000   0.000002
    14  H    0.000001  -0.000000  -0.000000   0.000000  -0.000000  -0.000009
    15  C    0.350333  -0.064931  -0.001201  -0.001975   0.003785  -0.044248
    16  H   -0.043537  -0.002223   0.002766  -0.000456  -0.000053  -0.000365
    17  H   -0.037848   0.003725  -0.000031  -0.000068  -0.000113  -0.003253
    18  H   -0.043385  -0.002632  -0.000476   0.002756  -0.000032  -0.000031
    19  C    4.914192   0.353753  -0.044274  -0.043899  -0.041639   0.697734
    20  C    0.353753   4.900112   0.398811   0.398238   0.406218  -0.044415
    21  H   -0.044274   0.398811   0.593607  -0.037806  -0.026549  -0.001270
    22  H   -0.043899   0.398238  -0.037806   0.594542  -0.026703  -0.000422
    23  H   -0.041639   0.406218  -0.026549  -0.026703   0.566018  -0.002632
    24  C    0.697734  -0.044415  -0.001270  -0.000422  -0.002632   4.962747
    25  H   -0.038449  -0.006963   0.000187   0.000182   0.002335   0.403391
    26  C   -0.050100   0.003126  -0.000131  -0.000068   0.000148   0.338699
    27  H    0.000438   0.000051   0.000007  -0.000005   0.000007  -0.044060
    28  H    0.001583  -0.000094   0.000009  -0.000002  -0.000010  -0.041395
              25         26         27         28
     1  C    0.000175   0.332330  -0.042369  -0.046841
     2  H    0.001011  -0.046074   0.004477  -0.001931
     3  H    0.000111  -0.041801  -0.003118   0.004515
     4  C   -0.000152  -0.055544  -0.001813  -0.002075
     5  C    0.000010  -0.000661   0.000243  -0.000289
     6  H    0.000015   0.000609  -0.000015   0.000197
     7  H   -0.000000  -0.000109  -0.000005  -0.000050
     8  H   -0.000001   0.000086   0.000006   0.000058
     9  C   -0.000002  -0.004911   0.001406   0.000760
    10  H   -0.000000  -0.000113  -0.000046   0.000001
    11  C    0.000000   0.000577  -0.000082  -0.000033
    12  H   -0.000002  -0.000737  -0.000475  -0.000010
    13  H    0.000000  -0.000037   0.000037  -0.000000
    14  H    0.000000   0.000163  -0.000140  -0.000000
    15  C    0.003528  -0.008144  -0.002693   0.000195
    16  H   -0.000121   0.000117   0.000113   0.000021
    17  H    0.000061  -0.002069  -0.001675   0.000058
    18  H   -0.000121   0.000367  -0.000076  -0.000014
    19  C   -0.038449  -0.050100   0.000438   0.001583
    20  C   -0.006963   0.003126   0.000051  -0.000094
    21  H    0.000187  -0.000131   0.000007   0.000009
    22  H    0.000182  -0.000068  -0.000005  -0.000002
    23  H    0.002335   0.000148   0.000007  -0.000010
    24  C    0.403391   0.338699  -0.044060  -0.041395
    25  H    0.557389  -0.039113   0.003152  -0.003424
    26  C   -0.039113   4.979543   0.415850   0.413482
    27  H    0.003152   0.415850   0.575347  -0.028362
    28  H   -0.003424   0.413482  -0.028362   0.585267
 Mulliken charges:
               1
     1  C   -0.236021
     2  H    0.115272
     3  H    0.125346
     4  C    0.018322
     5  C   -0.341505
     6  H    0.114461
     7  H    0.117792
     8  H    0.117845
     9  C   -0.154256
    10  H    0.115801
    11  C   -0.355567
    12  H    0.116140
    13  H    0.120830
    14  H    0.119588
    15  C   -0.350727
    16  H    0.121058
    17  H    0.120473
    18  H    0.119352
    19  C    0.027222
    20  C   -0.342631
    21  H    0.116356
    22  H    0.115672
    23  H    0.119222
    24  C   -0.163542
    25  H    0.116803
    26  C   -0.235486
    27  H    0.123802
    28  H    0.118380
 Sum of Mulliken charges =  -0.00000
 Mulliken charges with hydrogens summed into heavy atoms:
               1
     1  C    0.004596
     4  C    0.018322
     5  C    0.008593
     9  C   -0.038454
    11  C    0.000991
    15  C    0.010156
    19  C    0.027222
    20  C    0.008618
    24  C   -0.046740
    26  C    0.006696
 Electronic spatial extent (au):  <R**2>=           2384.0068
 Charge=             -0.0000 electrons
 Dipole moment (field-independent basis, Debye):
    X=             -0.3027    Y=              0.1253    Z=              0.0460  Tot=              0.3308
 Quadrupole moment (field-independent basis, Debye-Ang):
   XX=            -64.3023   YY=            -63.2901   ZZ=            -67.3956
   XY=             -0.7521   XZ=             -1.2367   YZ=             -0.3487
 Traceless Quadrupole moment (field-independent basis, Debye-Ang):
   XX=              0.6937   YY=              1.7059   ZZ=             -2.3996
   XY=             -0.7521   XZ=             -1.2367   YZ=             -0.3487
 Octapole moment (field-independent basis, Debye-Ang**2):
  XXX=             -2.6682  YYY=             -2.9989  ZZZ=              0.8999  XYY=              0.6416
  XXY=              4.0909  XXZ=             -2.0918  XZZ=             -1.2120  YZZ=              1.4955
  YYZ=              0.6111  XYZ=              0.3641
 Hexadecapole moment (field-independent basis, Debye-Ang**3):
 XXXX=          -2435.7175 YYYY=           -693.4922 ZZZZ=           -166.6416 XXXY=             -2.3047
 XXXZ=            -14.7514 YYYX=             11.0526 YYYZ=             -1.4215 ZZZX=             -2.8119
 ZZZY=             -0.6410 XXYY=           -520.1248 XXZZ=           -449.2342 YYZZ=           -138.3649
 XXYZ=             -4.2785 YYXZ=             -0.5785 ZZXY=             -5.9188
 N-N= 5.190879662131D+02 E-N=-1.942888671779D+03  KE= 3.887471640283D+02
 No NMR shielding tensors so no spin-rotation constants.
 Leave Link  601 at Fri Sep 17 14:22:15 2021, MaxMem=   524288000 cpu:               0.2 elap:               0.4
 (Enter /opt/gaussian/g16_legacy/l9999.exe)
 1\1\GINC-TRUENO92\FOpt\RMP2-FC\6-31G(d,p)\C10H18\JRAMOS\17-Sep-2021\0\
 \#p opt mp2/6-31g(d,p)\\Conformer number 1030. Energy MM = 23.242 kcal
 /mol\\0,1\C,0.5908102082,-0.980481206,0.1347955346\H,0.2191343994,-1.9
 774573352,0.3885340221\H,0.5062253381,-0.3832839198,1.0440349652\C,2.0
 221776699,-1.0833585284,-0.3285544519\C,2.3799703793,-2.3533481671,-1.
 0514388779\H,1.7148297919,-2.5206673874,-1.9015384962\H,3.4035099433,-
 2.3277079667,-1.423229685\H,2.2760336714,-3.2178330739,-0.3921300643\C
 ,2.9264040385,-0.0991736253,-0.1682221379\H,3.9252590269,-0.2630794621
 ,-0.5631483181\C,2.7096736733,1.2227053447,0.5037943969\H,1.6922263753
 ,1.3391420324,0.8701664531\H,3.3888388783,1.3474637156,1.349330589\H,2
 .9095570412,2.0435098819,-0.1876045747\C,-1.8537939764,2.0016043593,0.
 3459953212\H,-2.4028735846,2.7793079496,-0.189603108\H,-0.8042788394,2
 .0771681437,0.0729536031\H,-1.941910137,2.2295265711,1.4104775759\C,-2
 .4396447161,0.6474254132,0.0564401559\C,-3.8795406387,0.4859578896,0.4
 590283379\H,-4.5103322276,1.2160427848,-0.0531947252\H,-4.0056260135,0
 .6554684784,1.5307451399\H,-4.2512208084,-0.51035297,0.2245567623\C,-1
 .764692719,-0.3653023195,-0.5193966559\H,-2.2934216958,-1.3053360296,-
 0.655834261\C,-0.3250853532,-0.3652312585,-0.9406042705\H,0.026781831,
 0.6431509759,-1.1619379954\H,-0.218911556,-0.9359602905,-1.8670152351\
 \Version=EM64L-G16RevA.03\State=1-A\HF=-389.1567534\MP2=-390.5738646\R
 MSD=5.132e-09\RMSF=3.189e-06\Dipole=-0.0700913,0.0816236,0.0440483\PG=
 C01 [X(C10H18)]\\@


 CLIMB THE MOUNTAINS AND GET THEIR GOOD TIDINGS.
 NATURE'S PEACE WILL FLOW INTO YOU AS SUNSHINE FLOWS INTO TREES.
 THE WINDS WILL BLOW THEIR OWN FRESHNESS INTO YOU, 
 AND CARES WILL DROP OFF LIKE AUTUMN LEAVES.

                                         -- JOHN MUIR
 Job cpu time:       0 days  0 hours 49 minutes 33.9 seconds.
 Elapsed time:       0 days  0 hours 49 minutes 38.5 seconds.
 File lengths (MBytes):  RWF=     32 Int=      0 D2E=      0 Chk=      7 Scr=      1
 Normal termination of Gaussian 16 at Fri Sep 17 14:22:15 2021.
