 Entering Gaussian System, Link 0=/opt/gaussian/g16_legacy/g16
 Input=01-IsoP_523_gaussian.com
 Output=01-IsoP_523_gaussian.log
 Initial command:
 /opt/gaussian/g16_legacy/l1.exe "/scratch-local/jramos/2661424/Gau-25605.inp" -scrdir="/scratch-local/jramos/2661424/"
 Entering Link 1 = /opt/gaussian/g16_legacy/l1.exe PID=     25606.
  
 Copyright (c) 1988,1990,1992,1993,1995,1998,2003,2009,2016,
            Gaussian, Inc.  All Rights Reserved.
  
 This is part of the Gaussian(R) 16 program.  It is based on
 the Gaussian(R) 09 system (copyright 2009, Gaussian, Inc.),
 the Gaussian(R) 03 system (copyright 2003, Gaussian, Inc.),
 the Gaussian(R) 98 system (copyright 1998, Gaussian, Inc.),
 the Gaussian(R) 94 system (copyright 1995, Gaussian, Inc.),
 the Gaussian 92(TM) system (copyright 1992, Gaussian, Inc.),
 the Gaussian 90(TM) system (copyright 1990, Gaussian, Inc.),
 the Gaussian 88(TM) system (copyright 1988, Gaussian, Inc.),
 the Gaussian 86(TM) system (copyright 1986, Carnegie Mellon
 University), and the Gaussian 82(TM) system (copyright 1983,
 Carnegie Mellon University). Gaussian is a federally registered
 trademark of Gaussian, Inc.
  
 This software contains proprietary and confidential information,
 including trade secrets, belonging to Gaussian, Inc.
  
 This software is provided under written license and may be
 used, copied, transmitted, or stored only in accord with that
 written license.
  
 The following legend is applicable only to US Government
 contracts under FAR:
  
                    RESTRICTED RIGHTS LEGEND
  
 Use, reproduction and disclosure by the US Government is
 subject to restrictions as set forth in subparagraphs (a)
 and (c) of the Commercial Computer Software - Restricted
 Rights clause in FAR 52.227-19.
  
 Gaussian, Inc.
 340 Quinnipiac St., Bldg. 40, Wallingford CT 06492
  
  
 ---------------------------------------------------------------
 Warning -- This program may not be used in any manner that
 competes with the business of Gaussian, Inc. or will provide
 assistance to any competitor of Gaussian, Inc.  The licensee
 of this program is prohibited from giving any competitor of
 Gaussian, Inc. access to this program.  By using this program,
 the user acknowledges that Gaussian, Inc. is engaged in the
 business of creating and licensing software in the field of
 computational chemistry and represents and warrants to the
 licensee that it is not a competitor of Gaussian, Inc. and that
 it will not use this program in any manner prohibited above.
 ---------------------------------------------------------------
  

 Cite this work as:
 Gaussian 16, Revision A.03,
 M. J. Frisch, G. W. Trucks, H. B. Schlegel, G. E. Scuseria, 
 M. A. Robb, J. R. Cheeseman, G. Scalmani, V. Barone, 
 G. A. Petersson, H. Nakatsuji, X. Li, M. Caricato, A. V. Marenich, 
 J. Bloino, B. G. Janesko, R. Gomperts, B. Mennucci, H. P. Hratchian, 
 J. V. Ortiz, A. F. Izmaylov, J. L. Sonnenberg, D. Williams-Young, 
 F. Ding, F. Lipparini, F. Egidi, J. Goings, B. Peng, A. Petrone, 
 T. Henderson, D. Ranasinghe, V. G. Zakrzewski, J. Gao, N. Rega, 
 G. Zheng, W. Liang, M. Hada, M. Ehara, K. Toyota, R. Fukuda, 
 J. Hasegawa, M. Ishida, T. Nakajima, Y. Honda, O. Kitao, H. Nakai, 
 T. Vreven, K. Throssell, J. A. Montgomery, Jr., J. E. Peralta, 
 F. Ogliaro, M. J. Bearpark, J. J. Heyd, E. N. Brothers, K. N. Kudin, 
 V. N. Staroverov, T. A. Keith, R. Kobayashi, J. Normand, 
 K. Raghavachari, A. P. Rendell, J. C. Burant, S. S. Iyengar, 
 J. Tomasi, M. Cossi, J. M. Millam, M. Klene, C. Adamo, R. Cammi, 
 J. W. Ochterski, R. L. Martin, K. Morokuma, O. Farkas, 
 J. B. Foresman, and D. J. Fox, Gaussian, Inc., Wallingford CT, 2016.
 
 ******************************************
 Gaussian 16:  EM64L-G16RevA.03 25-Dec-2016
                17-Sep-2021 
 ******************************************
 %chk=01-IsoP_523_gaussian.chk
 %nproc=1
 Will use up to    1 processors via shared memory.
 %mem=4000Mb
 ---------------------
 #p opt mp2/6-31g(d,p)
 ---------------------
 1/18=20,19=15,38=1/1,3;
 2/9=110,12=2,17=6,18=5,40=1/2;
 3/5=1,6=6,7=101,11=9,25=1,30=1,71=1/1,2,3;
 4//1;
 5/5=2,38=5/2;
 8/6=4,10=2/1;
 9/15=2,16=-3/6;
 10/5=1/2;
 6/7=2,8=2,9=2,10=2/1;
 7/12=2/1,2,3,16;
 1/18=20,19=15/3(2);
 2/9=110/2;
 99//99;
 2/9=110/2;
 3/5=1,6=6,7=101,11=9,25=1,30=1,71=1/1,2,3;
 4/5=5,16=3,69=1/1;
 5/5=2,38=5/2;
 8/6=4,10=2/1;
 9/15=2,16=-3/6;
 10/5=1/2;
 7/12=2/1,2,3,16;
 1/18=20,19=15/3(-8);
 2/9=110/2;
 6/7=2,8=2,9=2,10=2/1;
 99//99;
 Leave Link    1 at Fri Sep 17 15:59:18 2021, MaxMem=   524288000 cpu:               0.0 elap:               0.1
 (Enter /opt/gaussian/g16_legacy/l101.exe)
 -------------------------------------------------
 Conformer number 523. Energy MM = 23.287 kcal/mol
 -------------------------------------------------
 Symbolic Z-matrix:
 Charge =  0 Multiplicity = 1
 C                    -0.6815    0.5789    0.3981 
 H                    -0.0511    1.4672    0.2565 
 H                    -0.7935    0.4841    1.4847 
 C                    -2.0251    0.8198   -0.2587 
 C                    -1.9734    1.5988   -1.5482 
 H                    -1.3721    1.0678   -2.2929 
 H                    -2.9683    1.7556   -1.9783 
 H                    -1.5274    2.5842   -1.3786 
 C                    -3.2054    0.4106    0.2472 
 H                    -4.1181    0.6571   -0.2948 
 C                    -3.4364   -0.3858    1.4923 
 H                    -2.5165   -0.7621    1.9454 
 H                    -4.063    -1.2528    1.2593 
 H                    -3.9622    0.2253    2.2321 
 C                     3.8045   -0.9682    0.847 
 H                     4.4448   -1.6633    0.294 
 H                     4.3782   -0.0604    1.0605 
 H                     3.5553   -1.4368    1.8049 
 C                     2.5789   -0.6334    0.0374 
 C                     2.8714    0.0045   -1.2927 
 H                     3.5292    0.87     -1.1577 
 H                     1.9776    0.3649   -1.807 
 H                     3.3747   -0.7112   -1.9507 
 C                     1.347    -0.8938    0.5169 
 H                     1.259    -1.3435    1.5061 
 C                     0.0259   -0.6577   -0.1654 
 H                     0.1455   -0.5729   -1.2501 
 H                    -0.5979   -1.5471   -0.0074 
 
 ITRead=  0  0  0  0  0  0  0  0  0  0  0  0  0  0  0  0  0  0  0  0
 ITRead=  0  0  0  0  0  0  0  0
 MicOpt= -1 -1 -1 -1 -1 -1 -1 -1 -1 -1 -1 -1 -1 -1 -1 -1 -1 -1 -1 -1
 MicOpt= -1 -1 -1 -1 -1 -1 -1 -1
 NAtoms=     28 NQM=       28 NQMF=       0 NMMI=      0 NMMIF=      0
                NMic=       0 NMicF=      0.
                    Isotopes and Nuclear Properties:
 (Nuclear quadrupole moments (NQMom) in fm**2, nuclear magnetic moments (NMagM)
  in nuclear magnetons)

  Atom         1           2           3           4           5           6           7           8           9          10
 IAtWgt=          12           1           1          12          12           1           1           1          12           1
 AtmWgt=  12.0000000   1.0078250   1.0078250  12.0000000  12.0000000   1.0078250   1.0078250   1.0078250  12.0000000   1.0078250
 NucSpn=           0           1           1           0           0           1           1           1           0           1
 AtZEff=  -0.0000000  -0.0000000  -0.0000000  -0.0000000  -0.0000000  -0.0000000  -0.0000000  -0.0000000  -0.0000000  -0.0000000
 NQMom=    0.0000000   0.0000000   0.0000000   0.0000000   0.0000000   0.0000000   0.0000000   0.0000000   0.0000000   0.0000000
 NMagM=    0.0000000   2.7928460   2.7928460   0.0000000   0.0000000   2.7928460   2.7928460   2.7928460   0.0000000   2.7928460
 AtZNuc=   6.0000000   1.0000000   1.0000000   6.0000000   6.0000000   1.0000000   1.0000000   1.0000000   6.0000000   1.0000000

  Atom        11          12          13          14          15          16          17          18          19          20
 IAtWgt=          12           1           1           1          12           1           1           1          12          12
 AtmWgt=  12.0000000   1.0078250   1.0078250   1.0078250  12.0000000   1.0078250   1.0078250   1.0078250  12.0000000  12.0000000
 NucSpn=           0           1           1           1           0           1           1           1           0           0
 AtZEff=  -0.0000000  -0.0000000  -0.0000000  -0.0000000  -0.0000000  -0.0000000  -0.0000000  -0.0000000  -0.0000000  -0.0000000
 NQMom=    0.0000000   0.0000000   0.0000000   0.0000000   0.0000000   0.0000000   0.0000000   0.0000000   0.0000000   0.0000000
 NMagM=    0.0000000   2.7928460   2.7928460   2.7928460   0.0000000   2.7928460   2.7928460   2.7928460   0.0000000   0.0000000
 AtZNuc=   6.0000000   1.0000000   1.0000000   1.0000000   6.0000000   1.0000000   1.0000000   1.0000000   6.0000000   6.0000000

  Atom        21          22          23          24          25          26          27          28
 IAtWgt=           1           1           1          12           1          12           1           1
 AtmWgt=   1.0078250   1.0078250   1.0078250  12.0000000   1.0078250  12.0000000   1.0078250   1.0078250
 NucSpn=           1           1           1           0           1           0           1           1
 AtZEff=  -0.0000000  -0.0000000  -0.0000000  -0.0000000  -0.0000000  -0.0000000  -0.0000000  -0.0000000
 NQMom=    0.0000000   0.0000000   0.0000000   0.0000000   0.0000000   0.0000000   0.0000000   0.0000000
 NMagM=    2.7928460   2.7928460   2.7928460   0.0000000   2.7928460   0.0000000   2.7928460   2.7928460
 AtZNuc=   1.0000000   1.0000000   1.0000000   6.0000000   1.0000000   6.0000000   1.0000000   1.0000000
 Leave Link  101 at Fri Sep 17 15:59:18 2021, MaxMem=   524288000 cpu:               0.1 elap:               0.2
 (Enter /opt/gaussian/g16_legacy/l103.exe)

 GradGradGradGradGradGradGradGradGradGradGradGradGradGradGradGradGradGrad
 Berny optimization.
 Initialization pass.
                           ----------------------------
                           !    Initial Parameters    !
                           ! (Angstroms and Degrees)  !
 --------------------------                            --------------------------
 ! Name  Definition              Value          Derivative Info.                !
 --------------------------------------------------------------------------------
 ! R1    R(1,2)                  1.0984         estimate D2E/DX2                !
 ! R2    R(1,3)                  1.0965         estimate D2E/DX2                !
 ! R3    R(1,4)                  1.5148         estimate D2E/DX2                !
 ! R4    R(1,26)                 1.532          estimate D2E/DX2                !
 ! R5    R(4,5)                  1.5074         estimate D2E/DX2                !
 ! R6    R(4,9)                  1.3478         estimate D2E/DX2                !
 ! R7    R(5,6)                  1.0946         estimate D2E/DX2                !
 ! R8    R(5,7)                  1.0952         estimate D2E/DX2                !
 ! R9    R(5,8)                  1.0948         estimate D2E/DX2                !
 ! R10   R(9,10)                 1.0897         estimate D2E/DX2                !
 ! R11   R(9,11)                 1.496          estimate D2E/DX2                !
 ! R12   R(11,12)                1.0923         estimate D2E/DX2                !
 ! R13   R(11,13)                1.0948         estimate D2E/DX2                !
 ! R14   R(11,14)                1.0942         estimate D2E/DX2                !
 ! R15   R(15,16)                1.095          estimate D2E/DX2                !
 ! R16   R(15,17)                1.0949         estimate D2E/DX2                !
 ! R17   R(15,18)                1.0951         estimate D2E/DX2                !
 ! R18   R(15,19)                1.5065         estimate D2E/DX2                !
 ! R19   R(19,20)                1.5039         estimate D2E/DX2                !
 ! R20   R(19,24)                1.3473         estimate D2E/DX2                !
 ! R21   R(20,21)                1.0955         estimate D2E/DX2                !
 ! R22   R(20,22)                1.0924         estimate D2E/DX2                !
 ! R23   R(20,23)                1.0948         estimate D2E/DX2                !
 ! R24   R(24,25)                1.0902         estimate D2E/DX2                !
 ! R25   R(24,26)                1.5055         estimate D2E/DX2                !
 ! R26   R(26,27)                1.0946         estimate D2E/DX2                !
 ! R27   R(26,28)                1.0978         estimate D2E/DX2                !
 ! A1    A(2,1,3)              104.8504         estimate D2E/DX2                !
 ! A2    A(2,1,4)              108.9379         estimate D2E/DX2                !
 ! A3    A(2,1,26)             109.8977         estimate D2E/DX2                !
 ! A4    A(3,1,4)              110.6606         estimate D2E/DX2                !
 ! A5    A(3,1,26)             109.9915         estimate D2E/DX2                !
 ! A6    A(4,1,26)             112.2367         estimate D2E/DX2                !
 ! A7    A(1,4,5)              115.0028         estimate D2E/DX2                !
 ! A8    A(1,4,9)              124.4526         estimate D2E/DX2                !
 ! A9    A(5,4,9)              120.5327         estimate D2E/DX2                !
 ! A10   A(4,5,6)              110.4959         estimate D2E/DX2                !
 ! A11   A(4,5,7)              112.2582         estimate D2E/DX2                !
 ! A12   A(4,5,8)              110.2779         estimate D2E/DX2                !
 ! A13   A(6,5,7)              107.5365         estimate D2E/DX2                !
 ! A14   A(6,5,8)              108.5561         estimate D2E/DX2                !
 ! A15   A(7,5,8)              107.5802         estimate D2E/DX2                !
 ! A16   A(4,9,10)             118.5612         estimate D2E/DX2                !
 ! A17   A(4,9,11)             127.5374         estimate D2E/DX2                !
 ! A18   A(10,9,11)            113.8944         estimate D2E/DX2                !
 ! A19   A(9,11,12)            113.4914         estimate D2E/DX2                !
 ! A20   A(9,11,13)            109.441          estimate D2E/DX2                !
 ! A21   A(9,11,14)            109.8538         estimate D2E/DX2                !
 ! A22   A(12,11,13)           107.3056         estimate D2E/DX2                !
 ! A23   A(12,11,14)           108.4599         estimate D2E/DX2                !
 ! A24   A(13,11,14)           108.1286         estimate D2E/DX2                !
 ! A25   A(16,15,17)           108.5668         estimate D2E/DX2                !
 ! A26   A(16,15,18)           107.6493         estimate D2E/DX2                !
 ! A27   A(16,15,19)           110.2058         estimate D2E/DX2                !
 ! A28   A(17,15,18)           107.665          estimate D2E/DX2                !
 ! A29   A(17,15,19)           110.2915         estimate D2E/DX2                !
 ! A30   A(18,15,19)           112.3357         estimate D2E/DX2                !
 ! A31   A(15,19,20)           114.2886         estimate D2E/DX2                !
 ! A32   A(15,19,24)           120.6387         estimate D2E/DX2                !
 ! A33   A(20,19,24)           125.0701         estimate D2E/DX2                !
 ! A34   A(19,20,21)           110.0553         estimate D2E/DX2                !
 ! A35   A(19,20,22)           113.4039         estimate D2E/DX2                !
 ! A36   A(19,20,23)           110.103          estimate D2E/DX2                !
 ! A37   A(21,20,22)           106.779          estimate D2E/DX2                !
 ! A38   A(21,20,23)           108.3322         estimate D2E/DX2                !
 ! A39   A(22,20,23)           107.9914         estimate D2E/DX2                !
 ! A40   A(19,24,25)           118.454          estimate D2E/DX2                !
 ! A41   A(19,24,26)           127.6421         estimate D2E/DX2                !
 ! A42   A(25,24,26)           113.896          estimate D2E/DX2                !
 ! A43   A(1,26,24)            111.4118         estimate D2E/DX2                !
 ! A44   A(1,26,27)            110.6352         estimate D2E/DX2                !
 ! A45   A(1,26,28)            109.7935         estimate D2E/DX2                !
 ! A46   A(24,26,27)           111.4311         estimate D2E/DX2                !
 ! A47   A(24,26,28)           107.8393         estimate D2E/DX2                !
 ! A48   A(27,26,28)           105.5148         estimate D2E/DX2                !
 ! D1    D(2,1,4,5)             36.9515         estimate D2E/DX2                !
 ! D2    D(2,1,4,9)           -141.798          estimate D2E/DX2                !
 ! D3    D(3,1,4,5)            151.7211         estimate D2E/DX2                !
 ! D4    D(3,1,4,9)            -27.0284         estimate D2E/DX2                !
 ! D5    D(26,1,4,5)           -84.987          estimate D2E/DX2                !
 ! D6    D(26,1,4,9)            96.2635         estimate D2E/DX2                !
 ! D7    D(2,1,26,24)           59.628          estimate D2E/DX2                !
 ! D8    D(2,1,26,27)          -64.9164         estimate D2E/DX2                !
 ! D9    D(2,1,26,28)          179.0244         estimate D2E/DX2                !
 ! D10   D(3,1,26,24)          -55.3155         estimate D2E/DX2                !
 ! D11   D(3,1,26,27)         -179.8599         estimate D2E/DX2                !
 ! D12   D(3,1,26,28)           64.0809         estimate D2E/DX2                !
 ! D13   D(4,1,26,24)         -178.9821         estimate D2E/DX2                !
 ! D14   D(4,1,26,27)           56.4735         estimate D2E/DX2                !
 ! D15   D(4,1,26,28)          -59.5857         estimate D2E/DX2                !
 ! D16   D(1,4,5,6)             60.5485         estimate D2E/DX2                !
 ! D17   D(1,4,5,7)           -179.4142         estimate D2E/DX2                !
 ! D18   D(1,4,5,8)            -59.4711         estimate D2E/DX2                !
 ! D19   D(9,4,5,6)           -120.6487         estimate D2E/DX2                !
 ! D20   D(9,4,5,7)             -0.6113         estimate D2E/DX2                !
 ! D21   D(9,4,5,8)            119.3317         estimate D2E/DX2                !
 ! D22   D(1,4,9,10)           178.5558         estimate D2E/DX2                !
 ! D23   D(1,4,9,11)            -2.4741         estimate D2E/DX2                !
 ! D24   D(5,4,9,10)            -0.1284         estimate D2E/DX2                !
 ! D25   D(5,4,9,11)           178.8417         estimate D2E/DX2                !
 ! D26   D(4,9,11,12)           -8.0401         estimate D2E/DX2                !
 ! D27   D(4,9,11,13)         -127.8662         estimate D2E/DX2                !
 ! D28   D(4,9,11,14)          113.5617         estimate D2E/DX2                !
 ! D29   D(10,9,11,12)         170.9705         estimate D2E/DX2                !
 ! D30   D(10,9,11,13)          51.1444         estimate D2E/DX2                !
 ! D31   D(10,9,11,14)         -67.4277         estimate D2E/DX2                !
 ! D32   D(16,15,19,20)        -59.572          estimate D2E/DX2                !
 ! D33   D(16,15,19,24)        120.9855         estimate D2E/DX2                !
 ! D34   D(17,15,19,20)         60.284          estimate D2E/DX2                !
 ! D35   D(17,15,19,24)       -119.1585         estimate D2E/DX2                !
 ! D36   D(18,15,19,20)       -179.6045         estimate D2E/DX2                !
 ! D37   D(18,15,19,24)          0.953          estimate D2E/DX2                !
 ! D38   D(15,19,20,21)        -52.5862         estimate D2E/DX2                !
 ! D39   D(15,19,20,22)       -172.1157         estimate D2E/DX2                !
 ! D40   D(15,19,20,23)         66.7654         estimate D2E/DX2                !
 ! D41   D(24,19,20,21)        126.8277         estimate D2E/DX2                !
 ! D42   D(24,19,20,22)          7.2982         estimate D2E/DX2                !
 ! D43   D(24,19,20,23)       -113.8207         estimate D2E/DX2                !
 ! D44   D(15,19,24,25)          0.5246         estimate D2E/DX2                !
 ! D45   D(15,19,24,26)       -178.3896         estimate D2E/DX2                !
 ! D46   D(20,19,24,25)       -178.8545         estimate D2E/DX2                !
 ! D47   D(20,19,24,26)          2.2313         estimate D2E/DX2                !
 ! D48   D(19,24,26,1)        -103.6622         estimate D2E/DX2                !
 ! D49   D(19,24,26,27)         20.4339         estimate D2E/DX2                !
 ! D50   D(19,24,26,28)        135.7868         estimate D2E/DX2                !
 ! D51   D(25,24,26,1)          77.3819         estimate D2E/DX2                !
 ! D52   D(25,24,26,27)       -158.522          estimate D2E/DX2                !
 ! D53   D(25,24,26,28)        -43.1691         estimate D2E/DX2                !
 --------------------------------------------------------------------------------
 Trust Radius=3.00D-01 FncErr=1.00D-07 GrdErr=1.00D-07 EigMax=2.50D+02 EigMin=1.00D-04
 Number of steps in this run=    138 maximum allowed number of steps=    168.
 GradGradGradGradGradGradGradGradGradGradGradGradGradGradGradGradGradGrad

 Leave Link  103 at Fri Sep 17 15:59:18 2021, MaxMem=   524288000 cpu:               0.0 elap:               0.1
 (Enter /opt/gaussian/g16_legacy/l202.exe)
                          Input orientation:                          
 ---------------------------------------------------------------------
 Center     Atomic      Atomic             Coordinates (Angstroms)
 Number     Number       Type             X           Y           Z
 ---------------------------------------------------------------------
      1          6           0       -0.681500    0.578900    0.398100
      2          1           0       -0.051100    1.467200    0.256500
      3          1           0       -0.793500    0.484100    1.484700
      4          6           0       -2.025100    0.819800   -0.258700
      5          6           0       -1.973400    1.598800   -1.548200
      6          1           0       -1.372100    1.067800   -2.292900
      7          1           0       -2.968300    1.755600   -1.978300
      8          1           0       -1.527400    2.584200   -1.378600
      9          6           0       -3.205400    0.410600    0.247200
     10          1           0       -4.118100    0.657100   -0.294800
     11          6           0       -3.436400   -0.385800    1.492300
     12          1           0       -2.516500   -0.762100    1.945400
     13          1           0       -4.063000   -1.252800    1.259300
     14          1           0       -3.962200    0.225300    2.232100
     15          6           0        3.804500   -0.968200    0.847000
     16          1           0        4.444800   -1.663300    0.294000
     17          1           0        4.378200   -0.060400    1.060500
     18          1           0        3.555300   -1.436800    1.804900
     19          6           0        2.578900   -0.633400    0.037400
     20          6           0        2.871400    0.004500   -1.292700
     21          1           0        3.529200    0.870000   -1.157700
     22          1           0        1.977600    0.364900   -1.807000
     23          1           0        3.374700   -0.711200   -1.950700
     24          6           0        1.347000   -0.893800    0.516900
     25          1           0        1.259000   -1.343500    1.506100
     26          6           0        0.025900   -0.657700   -0.165400
     27          1           0        0.145500   -0.572900   -1.250100
     28          1           0       -0.597900   -1.547100   -0.007400
 ---------------------------------------------------------------------
                    Distance matrix (angstroms):
                    1          2          3          4          5
     1  C    0.000000
     2  H    1.098422   0.000000
     3  H    1.096463   1.739574   0.000000
     4  C    1.514820   2.140382   2.160781   0.000000
     5  C    2.548977   2.639981   3.439942   1.507423   0.000000
     6  H    2.820892   2.898966   3.865973   2.150787   1.094578
     7  H    3.501622   3.686131   4.282387   2.173102   1.095170
     8  H    2.809526   2.469960   3.625950   2.148252   1.094849
     9  C    2.534002   3.326575   2.711839   1.347771   2.480545
    10  H    3.506629   4.183382   3.774853   2.099625   2.656605
    11  C    3.117273   4.052292   2.782392   2.551713   3.914543
    12  H    2.749481   3.728319   2.175773   2.757161   4.251358
    13  H    3.940981   4.949682   3.709078   3.279181   4.514433
    14  H    3.775127   4.554340   3.265922   3.210899   4.486925
    15  C    4.766469   4.598425   4.863892   6.197076   6.760962
    16  H    5.596182   5.478554   5.785229   6.952041   7.431574
    17  H    5.142766   4.753807   5.217558   6.596764   7.064070
    18  H    4.898225   4.882303   4.764918   6.363297   7.143156
    19  C    3.497139   3.373044   3.836218   4.836970   5.312276
    20  C    3.976410   3.616700   4.623360   5.070462   5.106776
    21  H    4.498361   3.895530   5.081036   5.626808   5.564373
    22  H    3.461080   3.096566   4.304474   4.315759   4.147275
    23  H    4.861479   4.620959   5.532143   5.862138   5.839544
    24  C    2.509536   2.756232   2.723414   3.861222   4.637106
    25  H    2.947681   3.343336   2.748333   4.310417   5.332381
    26  C    1.532033   2.167747   2.167476   2.529489   3.316795
    27  H    2.174198   2.543718   3.078652   2.762968   3.048751
    28  H    2.165940   3.074839   2.527923   2.775296   3.763343
                    6          7          8          9         10
     6  H    0.000000
     7  H    1.766323   0.000000
     8  H    1.777507   1.767034   0.000000
     9  C    3.200783   2.611148   3.191151   0.000000
    10  H    3.420759   2.315797   3.405887   1.089747   0.000000
    11  C    4.549948   4.104848   4.550522   1.495957   2.178550
    12  H    4.756193   4.683840   4.819234   2.175705   3.098023
    13  H    5.024366   4.553119   5.301920   2.127610   2.462921
    14  H    5.281482   4.588804   4.952758   2.132349   2.568264
    15  C    6.387602   7.827658   6.782477   7.169348   8.167796
    16  H    6.927286   8.473858   7.517049   7.926463   8.891243
    17  H    6.751598   8.154951   6.915145   7.641615   8.633583
    18  H    6.880716   8.189101   7.220592   7.179581   8.226435
    19  C    4.892319   6.367244   5.405525   5.881503   6.828291
    20  C    4.487572   6.135022   5.100164   6.282015   7.090473
    21  H    5.034933   6.608720   5.343827   6.894899   7.698774
    22  H    3.456972   5.140556   4.170593   5.575421   6.287264
    23  H    5.080753   6.805844   5.934437   7.027582   7.794633
    24  C    4.374512   5.645100   4.894035   4.743263   5.738594
    25  H    5.212433   6.294087   5.613586   4.959089   6.013223
    26  C    3.075388   4.251571   3.794010   3.428236   4.349503
    27  H    2.466260   3.955747   3.575246   3.799699   4.539139
    28  H    3.558173   4.517861   4.451045   3.270545   4.163280
                   11         12         13         14         15
    11  C    0.000000
    12  H    1.092299   0.000000
    13  H    1.094808   1.761585   0.000000
    14  H    1.094172   1.774036   1.772366   0.000000
    15  C    7.292889   6.419034   7.883435   7.979008   0.000000
    16  H    8.073490   7.211032   8.572221   8.831800   1.094969
    17  H    7.833282   6.986581   8.527321   8.427131   1.094904
    18  H    7.077160   6.110787   7.640028   7.710894   1.095107
    19  C    6.193696   5.442438   6.781706   6.952702   1.506532
    20  C    6.906294   6.332648   7.495293   7.692273   2.528861
    21  H    7.557719   6.988810   8.245585   8.247876   2.733787
    22  H    6.384381   5.962178   6.964768   7.184361   3.486895
    23  H    7.638797   7.063174   8.118917   8.497232   2.842165
    24  C    4.908196   4.121236   5.472489   5.690510   2.480687
    25  H    4.792094   3.845180   5.328491   5.499922   2.656094
    26  C    3.848301   3.306081   4.370700   4.736310   3.924179
    27  H    4.515061   4.163323   4.946799   5.443899   4.235844
    28  H    3.413913   2.847925   3.701089   4.413080   4.521753
                   16         17         18         19         20
    16  H    0.000000
    17  H    1.777989   0.000000
    18  H    1.767861   1.767986   0.000000
    19  C    2.146653   2.147683   2.173215   0.000000
    20  C    2.788326   2.795033   3.484278   1.503875   0.000000
    21  H    3.059962   2.550854   3.754864   2.142789   1.095452
    22  H    3.822940   3.763817   4.333715   2.181737   1.092369
    23  H    2.662759   3.240043   3.829314   2.142870   1.094761
    24  C    3.199716   3.190334   2.613500   1.347333   2.530887
    25  H    3.423562   3.402104   2.317537   2.098442   3.500031
    26  C    4.555102   4.560933   4.116521   2.561157   3.131483
    27  H    4.696509   4.849462   4.658979   2.753680   2.786707
    28  H    5.053035   5.302099   4.532733   3.305891   4.011920
                   21         22         23         24         25
    21  H    0.000000
    22  H    1.756183   0.000000
    23  H    1.775644   1.769330   0.000000
    24  C    3.267610   2.717074   3.199056   0.000000
    25  H    4.141162   3.796268   4.101884   1.090179   0.000000
    26  C    3.948625   2.747671   3.795342   1.505517   2.187412
    27  H    3.679664   2.132181   3.307219   2.160756   3.070887
    28  H    4.919199   3.677976   4.500744   2.117623   2.404207
                   26         27         28
    26  C    0.000000
    27  H    1.094564   0.000000
    28  H    1.097781   1.745283   0.000000
 Stoichiometry    C10H18
 Framework group  C1[X(C10H18)]
 Deg. of freedom    78
 Full point group                 C1      NOp   1
 Largest Abelian subgroup         C1      NOp   1
 Largest concise Abelian subgroup C1      NOp   1
                         Standard orientation:                         
 ---------------------------------------------------------------------
 Center     Atomic      Atomic             Coordinates (Angstroms)
 Number     Number       Type             X           Y           Z
 ---------------------------------------------------------------------
      1          6           0       -0.745850   -0.045541    0.580339
      2          1           0       -0.286529    0.606578    1.335518
      3          1           0       -0.871464   -1.012067    1.082615
      4          6           0       -2.090168    0.530367    0.185601
      5          6           0       -2.144097    2.035397    0.120029
      6          1           0       -1.432574    2.412457   -0.621363
      7          1           0       -3.137254    2.403148   -0.158893
      8          1           0       -1.893348    2.466888    1.094521
      9          6           0       -3.189332   -0.206015   -0.071439
     10          1           0       -4.114917    0.310401   -0.324725
     11          6           0       -3.306957   -1.697336   -0.075178
     12          1           0       -2.347592   -2.210009    0.024330
     13          1           0       -3.755064   -2.025152   -1.018757
     14          1           0       -3.958977   -2.020718    0.741834
     15          6           0        3.933039   -0.920062    0.330463
     16          1           0        4.707366   -0.789543   -0.432649
     17          1           0        4.322234   -0.557759    1.287583
     18          1           0        3.745687   -1.994134    0.433069
     19          6           0        2.691928   -0.156331   -0.051634
     20          6           0        2.901859    1.323975   -0.213689
     21          1           0        3.383878    1.735093    0.679986
     22          1           0        1.972937    1.881001   -0.355453
     23          1           0        3.548622    1.520244   -1.074896
     24          6           0        1.515373   -0.793343   -0.210503
     25          1           0        1.481918   -1.870774   -0.047673
     26          6           0        0.194822   -0.197062   -0.619372
     27          1           0        0.329691    0.762998   -1.127470
     28          1           0       -0.258313   -0.862950   -1.365284
 ---------------------------------------------------------------------
 Rotational constants (GHZ):           2.4778264           0.5324373           0.4581626
 Leave Link  202 at Fri Sep 17 15:59:18 2021, MaxMem=   524288000 cpu:               0.0 elap:               0.1
 (Enter /opt/gaussian/g16_legacy/l301.exe)
 Standard basis: 6-31G(d,p) (6D, 7F)
 Ernie: Thresh=  0.10000D-02 Tol=  0.10000D-05 Strict=F.
 There are   240 symmetry adapted cartesian basis functions of A   symmetry.
 There are   240 symmetry adapted basis functions of A   symmetry.
   240 basis functions,   406 primitive gaussians,   240 cartesian basis functions
    39 alpha electrons       39 beta electrons
       nuclear repulsion energy       513.2774520994 Hartrees.
 IExCor=    0 DFT=F Ex=HF Corr=None ExCW=0 ScaHFX=  1.000000
 ScaDFX=  1.000000  1.000000  1.000000  1.000000 ScalE2=  1.000000  1.000000
 IRadAn=      5 IRanWt=     -1 IRanGd=            0 ICorTp=0 IEmpDi=  4
 NAtoms=   28 NActive=   28 NUniq=   28 SFac= 1.00D+00 NAtFMM=   60 NAOKFM=F Big=F
 Integral buffers will be    131072 words long.
 Raffenetti 1 integral format.
 Two-electron integral symmetry is turned on.
 Leave Link  301 at Fri Sep 17 15:59:18 2021, MaxMem=   524288000 cpu:               0.1 elap:               0.1
 (Enter /opt/gaussian/g16_legacy/l302.exe)
 NPDir=0 NMtPBC=     1 NCelOv=     1 NCel=       1 NClECP=     1 NCelD=      1
         NCelK=      1 NCelE2=     1 NClLst=     1 CellRange=     0.0.
 One-electron integrals computed using PRISM.
 One-electron integral symmetry used in STVInt
 NBasis=   240 RedAO= T EigKep=  2.09D-03  NBF=   240
 NBsUse=   240 1.00D-06 EigRej= -1.00D+00 NBFU=   240
 Leave Link  302 at Fri Sep 17 15:59:19 2021, MaxMem=   524288000 cpu:               0.2 elap:               0.4
 (Enter /opt/gaussian/g16_legacy/l303.exe)
 DipDrv:  MaxL=1.
 Leave Link  303 at Fri Sep 17 15:59:19 2021, MaxMem=   524288000 cpu:               0.0 elap:               0.1
 (Enter /opt/gaussian/g16_legacy/l401.exe)
 ExpMin= 1.61D-01 ExpMax= 3.05D+03 ExpMxC= 4.57D+02 IAcc=3 IRadAn=         5 AccDes= 0.00D+00
 Harris functional with IExCor=  205 and IRadAn=       5 diagonalized for initial guess.
 HarFok:  IExCor=  205 AccDes= 0.00D+00 IRadAn=         5 IDoV= 1 UseB2=F ITyADJ=14
 ICtDFT=  3500011 ScaDFX=  1.000000  1.000000  1.000000  1.000000
 FoFCou: FMM=F IPFlag=           0 FMFlag=      100000 FMFlg1=           0
         NFxFlg=           0 DoJE=T BraDBF=F KetDBF=T FulRan=T
         wScrn=  0.000000 ICntrl=       500 IOpCl=  0 I1Cent=   200000004 NGrid=           0
         NMat0=    1 NMatS0=      1 NMatT0=    0 NMatD0=    1 NMtDS0=    0 NMtDT0=    0
 Petite list used in FoFCou.
 Harris En= -390.110066335353    
 JPrj=0 DoOrth=F DoCkMO=F.
 Leave Link  401 at Fri Sep 17 15:59:26 2021, MaxMem=   524288000 cpu:               6.5 elap:               6.6
 (Enter /opt/gaussian/g16_legacy/l502.exe)
 Keep R1 ints in memory in canonical form, NReq=425198025.
 FoFCou: FMM=F IPFlag=           0 FMFlag=           0 FMFlg1=           0
         NFxFlg=           0 DoJE=F BraDBF=F KetDBF=F FulRan=T
         wScrn=  0.000000 ICntrl=       600 IOpCl=  0 I1Cent=           0 NGrid=           0
         NMat0=    1 NMatS0=  28920 NMatT0=    0 NMatD0=    1 NMtDS0=    0 NMtDT0=    0
 Symmetry not used in FoFCou.
 Two-electron integral symmetry not used.
 Closed shell SCF:
 Using DIIS extrapolation, IDIIS=  1040.
 NGot=   524288000 LenX=   105970886 LenY=   105912845
 Requested convergence on RMS density matrix=1.00D-08 within 128 cycles.
 Requested convergence on MAX density matrix=1.00D-06.
 Requested convergence on             energy=1.00D-06.
 No special actions if energy rises.

 Cycle   1  Pass 1  IDiag  1:
 E= -388.532780412662    
 DIIS: error= 5.02D-02 at cycle   1 NSaved=   1.
 NSaved= 1 IEnMin= 1 EnMin= -388.532780412662     IErMin= 1 ErrMin= 5.02D-02
 ErrMax= 5.02D-02  0.00D+00 EMaxC= 1.00D-01 BMatC= 8.07D-01 BMatP= 8.07D-01
 IDIUse=3 WtCom= 4.98D-01 WtEn= 5.02D-01
 Coeff-Com:  0.100D+01
 Coeff-En:   0.100D+01
 Coeff:      0.100D+01
 Gap=     0.508 Goal=   None    Shift=    0.000
 GapD=    0.508 DampG=2.000 DampE=0.500 DampFc=1.0000 IDamp=-1.
 RMSDP=3.99D-03 MaxDP=1.15D-01              OVMax= 1.39D-01

 Cycle   2  Pass 1  IDiag  1:
 E= -389.074239186380     Delta-E=       -0.541458773718 Rises=F Damp=F
 DIIS: error= 1.46D-02 at cycle   2 NSaved=   2.
 NSaved= 2 IEnMin= 2 EnMin= -389.074239186380     IErMin= 2 ErrMin= 1.46D-02
 ErrMax= 1.46D-02  0.00D+00 EMaxC= 1.00D-01 BMatC= 8.63D-02 BMatP= 8.07D-01
 IDIUse=3 WtCom= 8.54D-01 WtEn= 1.46D-01
 Coeff-Com:  0.183D+00 0.817D+00
 Coeff-En:   0.000D+00 0.100D+01
 Coeff:      0.156D+00 0.844D+00
 Gap=     0.552 Goal=   None    Shift=    0.000
 RMSDP=1.62D-03 MaxDP=3.04D-02 DE=-5.41D-01 OVMax= 4.55D-02

 Cycle   3  Pass 1  IDiag  1:
 E= -389.151657494960     Delta-E=       -0.077418308580 Rises=F Damp=F
 DIIS: error= 2.67D-03 at cycle   3 NSaved=   3.
 NSaved= 3 IEnMin= 3 EnMin= -389.151657494960     IErMin= 3 ErrMin= 2.67D-03
 ErrMax= 2.67D-03  0.00D+00 EMaxC= 1.00D-01 BMatC= 3.02D-03 BMatP= 8.63D-02
 IDIUse=3 WtCom= 9.73D-01 WtEn= 2.67D-02
 Coeff-Com: -0.245D-01 0.102D+00 0.922D+00
 Coeff-En:   0.000D+00 0.000D+00 0.100D+01
 Coeff:     -0.239D-01 0.997D-01 0.924D+00
 Gap=     0.499 Goal=   None    Shift=    0.000
 RMSDP=2.54D-04 MaxDP=6.75D-03 DE=-7.74D-02 OVMax= 9.70D-03

 Cycle   4  Pass 1  IDiag  1:
 E= -389.155151247874     Delta-E=       -0.003493752914 Rises=F Damp=F
 DIIS: error= 4.95D-04 at cycle   4 NSaved=   4.
 NSaved= 4 IEnMin= 4 EnMin= -389.155151247874     IErMin= 4 ErrMin= 4.95D-04
 ErrMax= 4.95D-04  0.00D+00 EMaxC= 1.00D-01 BMatC= 9.58D-05 BMatP= 3.02D-03
 IDIUse=3 WtCom= 9.95D-01 WtEn= 4.95D-03
 Coeff-Com: -0.442D-02-0.839D-03 0.102D+00 0.903D+00
 Coeff-En:   0.000D+00 0.000D+00 0.000D+00 0.100D+01
 Coeff:     -0.440D-02-0.835D-03 0.102D+00 0.903D+00
 Gap=     0.500 Goal=   None    Shift=    0.000
 RMSDP=7.33D-05 MaxDP=1.75D-03 DE=-3.49D-03 OVMax= 3.51D-03

 Cycle   5  Pass 1  IDiag  1:
 E= -389.155276471074     Delta-E=       -0.000125223200 Rises=F Damp=F
 DIIS: error= 1.73D-04 at cycle   5 NSaved=   5.
 NSaved= 5 IEnMin= 5 EnMin= -389.155276471074     IErMin= 5 ErrMin= 1.73D-04
 ErrMax= 1.73D-04  0.00D+00 EMaxC= 1.00D-01 BMatC= 1.79D-05 BMatP= 9.58D-05
 IDIUse=3 WtCom= 9.98D-01 WtEn= 1.73D-03
 Coeff-Com:  0.248D-02-0.153D-01-0.106D+00 0.196D+00 0.922D+00
 Coeff-En:   0.000D+00 0.000D+00 0.000D+00 0.000D+00 0.100D+01
 Coeff:      0.247D-02-0.153D-01-0.105D+00 0.196D+00 0.923D+00
 Gap=     0.500 Goal=   None    Shift=    0.000
 RMSDP=3.09D-05 MaxDP=7.46D-04 DE=-1.25D-04 OVMax= 1.02D-03

 Cycle   6  Pass 1  IDiag  1:
 E= -389.155300086189     Delta-E=       -0.000023615115 Rises=F Damp=F
 DIIS: error= 3.73D-05 at cycle   6 NSaved=   6.
 NSaved= 6 IEnMin= 6 EnMin= -389.155300086189     IErMin= 6 ErrMin= 3.73D-05
 ErrMax= 3.73D-05  0.00D+00 EMaxC= 1.00D-01 BMatC= 5.51D-07 BMatP= 1.79D-05
 IDIUse=1 WtCom= 1.00D+00 WtEn= 0.00D+00
 Coeff-Com:  0.725D-03-0.330D-02-0.263D-01-0.271D-02 0.163D+00 0.868D+00
 Coeff:      0.725D-03-0.330D-02-0.263D-01-0.271D-02 0.163D+00 0.868D+00
 Gap=     0.500 Goal=   None    Shift=    0.000
 RMSDP=5.42D-06 MaxDP=1.67D-04 DE=-2.36D-05 OVMax= 3.13D-04

 Cycle   7  Pass 1  IDiag  1:
 E= -389.155300939638     Delta-E=       -0.000000853450 Rises=F Damp=F
 DIIS: error= 9.13D-06 at cycle   7 NSaved=   7.
 NSaved= 7 IEnMin= 7 EnMin= -389.155300939638     IErMin= 7 ErrMin= 9.13D-06
 ErrMax= 9.13D-06  0.00D+00 EMaxC= 1.00D-01 BMatC= 4.91D-08 BMatP= 5.51D-07
 IDIUse=1 WtCom= 1.00D+00 WtEn= 0.00D+00
 Coeff-Com: -0.555D-04 0.478D-03 0.325D-02-0.106D-01-0.462D-01 0.126D+00
 Coeff-Com:  0.927D+00
 Coeff:     -0.555D-04 0.478D-03 0.325D-02-0.106D-01-0.462D-01 0.126D+00
 Coeff:      0.927D+00
 Gap=     0.500 Goal=   None    Shift=    0.000
 RMSDP=1.69D-06 MaxDP=4.71D-05 DE=-8.53D-07 OVMax= 8.68D-05

 Cycle   8  Pass 1  IDiag  1:
 E= -389.155301024748     Delta-E=       -0.000000085109 Rises=F Damp=F
 DIIS: error= 2.98D-06 at cycle   8 NSaved=   8.
 NSaved= 8 IEnMin= 8 EnMin= -389.155301024748     IErMin= 8 ErrMin= 2.98D-06
 ErrMax= 2.98D-06  0.00D+00 EMaxC= 1.00D-01 BMatC= 4.91D-09 BMatP= 4.91D-08
 IDIUse=1 WtCom= 1.00D+00 WtEn= 0.00D+00
 Coeff-Com: -0.553D-04 0.226D-03 0.195D-02 0.331D-02-0.143D-01-0.848D-01
 Coeff-Com: -0.129D+00 0.122D+01
 Coeff:     -0.553D-04 0.226D-03 0.195D-02 0.331D-02-0.143D-01-0.848D-01
 Coeff:     -0.129D+00 0.122D+01
 Gap=     0.500 Goal=   None    Shift=    0.000
 RMSDP=7.76D-07 MaxDP=2.58D-05 DE=-8.51D-08 OVMax= 5.60D-05

 Cycle   9  Pass 1  IDiag  1:
 E= -389.155301040018     Delta-E=       -0.000000015270 Rises=F Damp=F
 DIIS: error= 1.35D-06 at cycle   9 NSaved=   9.
 NSaved= 9 IEnMin= 9 EnMin= -389.155301040018     IErMin= 9 ErrMin= 1.35D-06
 ErrMax= 1.35D-06  0.00D+00 EMaxC= 1.00D-01 BMatC= 6.51D-10 BMatP= 4.91D-09
 IDIUse=1 WtCom= 1.00D+00 WtEn= 0.00D+00
 Coeff-Com:  0.122D-04-0.776D-04-0.580D-03 0.123D-02 0.419D-02 0.522D-02
 Coeff-Com: -0.723D-01-0.196D+00 0.126D+01
 Coeff:      0.122D-04-0.776D-04-0.580D-03 0.123D-02 0.419D-02 0.522D-02
 Coeff:     -0.723D-01-0.196D+00 0.126D+01
 Gap=     0.500 Goal=   None    Shift=    0.000
 RMSDP=2.99D-07 MaxDP=1.28D-05 DE=-1.53D-08 OVMax= 2.62D-05

 Cycle  10  Pass 1  IDiag  1:
 E= -389.155301042225     Delta-E=       -0.000000002207 Rises=F Damp=F
 DIIS: error= 4.11D-07 at cycle  10 NSaved=  10.
 NSaved=10 IEnMin=10 EnMin= -389.155301042225     IErMin=10 ErrMin= 4.11D-07
 ErrMax= 4.11D-07  0.00D+00 EMaxC= 1.00D-01 BMatC= 8.49D-11 BMatP= 6.51D-10
 IDIUse=1 WtCom= 1.00D+00 WtEn= 0.00D+00
 Coeff-Com:  0.803D-05-0.368D-04-0.304D-03-0.200D-03 0.163D-02 0.134D-01
 Coeff-Com:  0.123D-01-0.192D+00 0.980D-01 0.107D+01
 Coeff:      0.803D-05-0.368D-04-0.304D-03-0.200D-03 0.163D-02 0.134D-01
 Coeff:      0.123D-01-0.192D+00 0.980D-01 0.107D+01
 Gap=     0.500 Goal=   None    Shift=    0.000
 RMSDP=1.08D-07 MaxDP=3.31D-06 DE=-2.21D-09 OVMax= 8.53D-06

 Cycle  11  Pass 1  IDiag  1:
 E= -389.155301042482     Delta-E=       -0.000000000257 Rises=F Damp=F
 DIIS: error= 1.55D-07 at cycle  11 NSaved=  11.
 NSaved=11 IEnMin=11 EnMin= -389.155301042482     IErMin=11 ErrMin= 1.55D-07
 ErrMax= 1.55D-07  0.00D+00 EMaxC= 1.00D-01 BMatC= 5.89D-12 BMatP= 8.49D-11
 IDIUse=1 WtCom= 1.00D+00 WtEn= 0.00D+00
 Coeff-Com: -0.509D-06 0.459D-05 0.337D-04-0.107D-03-0.456D-03 0.985D-03
 Coeff-Com:  0.873D-02 0.495D-02-0.108D+00 0.924D-01 0.100D+01
 Coeff:     -0.509D-06 0.459D-05 0.337D-04-0.107D-03-0.456D-03 0.985D-03
 Coeff:      0.873D-02 0.495D-02-0.108D+00 0.924D-01 0.100D+01
 Gap=     0.500 Goal=   None    Shift=    0.000
 RMSDP=2.30D-08 MaxDP=1.01D-06 DE=-2.57D-10 OVMax= 2.02D-06

 Cycle  12  Pass 1  IDiag  1:
 E= -389.155301042488     Delta-E=       -0.000000000005 Rises=F Damp=F
 DIIS: error= 4.41D-08 at cycle  12 NSaved=  12.
 NSaved=12 IEnMin=12 EnMin= -389.155301042488     IErMin=12 ErrMin= 4.41D-08
 ErrMax= 4.41D-08  0.00D+00 EMaxC= 1.00D-01 BMatC= 9.45D-13 BMatP= 5.89D-12
 IDIUse=1 WtCom= 1.00D+00 WtEn= 0.00D+00
 Coeff-Com: -0.946D-06 0.495D-05 0.398D-04 0.173D-05-0.291D-03-0.124D-02
 Coeff-Com:  0.338D-03 0.207D-01-0.365D-01-0.106D+00 0.192D+00 0.931D+00
 Coeff:     -0.946D-06 0.495D-05 0.398D-04 0.173D-05-0.291D-03-0.124D-02
 Coeff:      0.338D-03 0.207D-01-0.365D-01-0.106D+00 0.192D+00 0.931D+00
 Gap=     0.500 Goal=   None    Shift=    0.000
 RMSDP=9.74D-09 MaxDP=2.60D-07 DE=-5.46D-12 OVMax= 6.38D-07

 SCF Done:  E(RHF) =  -389.155301042     A.U. after   12 cycles
            NFock= 12  Conv=0.97D-08     -V/T= 2.0014
 KE= 3.886245081291D+02 PE=-1.931189272992D+03 EE= 6.401320117214D+02
 Leave Link  502 at Fri Sep 17 15:59:41 2021, MaxMem=   524288000 cpu:              14.7 elap:              14.9
 (Enter /opt/gaussian/g16_legacy/l801.exe)
 ExpMin= 1.61D-01 ExpMax= 3.05D+03 ExpMxC= 4.57D+02 IAcc=3 IRadAn=         5 AccDes= 0.00D+00
 HarFok:  IExCor=  205 AccDes= 0.00D+00 IRadAn=         5 IDoV=-2 UseB2=F ITyADJ=14
 ICtDFT= 12500011 ScaDFX=  1.000000  1.000000  1.000000  1.000000
 Largest valence mixing into a core orbital is  1.97D-04
 Largest core mixing into a valence orbital is  3.52D-05
 Range of M.O.s used for correlation:    11   240
 NBasis=   240 NAE=    39 NBE=    39 NFC=    10 NFV=     0
 NROrb=    230 NOA=    29 NOB=    29 NVA=   201 NVB=   201
 Leave Link  801 at Fri Sep 17 15:59:42 2021, MaxMem=   524288000 cpu:               1.0 elap:               1.2
 (Enter /opt/gaussian/g16_legacy/l906.exe)
 Frozen-core derivative calculation, NFC=  10 NFV=   0.
 FulOut=F Deriv=T AODrv=T NAtomX=    28
   MMem=          89  MDisk=          29 MDiskD=          29
  W3Min=     2246400 MinDsk=     2795480 NBas6D=         240
 NBas2D=       29244    NTT=       28920    LW2=     2040000
    MDV=   523629461 MDiskM=       30186 NBas2p=       24099
 Fully direct method using O(ONN) memory.
 IMap=   1   2   3   4   5   6   7   8   9  10  11  12  13  14  15  16  17  18  19  20
 IMap=  21  22  23  24  25  26  27  28  29  30  31  32  33  34  35  36  37  38  39
 JobTyp=1 Pass  1:  I=  11 to  39 NPSUse=  1 ParTrn=F ParDer=F DoDerP=T.
 Spin components of T(2) and E(2):
     alpha-alpha T2 =       0.5711517973D-01 E2=     -0.1637340209D+00
     alpha-beta  T2 =       0.3617425145D+00 E2=     -0.1089191171D+01
     beta-beta   T2 =       0.5711517973D-01 E2=     -0.1637340209D+00
 The integrals were generated   1 times.
 ANorm=    0.1214896240D+01
 E2 =    -0.1416659213D+01 EUMP2 =    -0.39057196025559D+03
 Leave Link  906 at Fri Sep 17 16:01:59 2021, MaxMem=   524288000 cpu:             136.8 elap:             136.8
 (Enter /opt/gaussian/g16_legacy/l1002.exe)
 Minotr:  Closed shell wavefunction.
          Computing MP2/KS-MP2 derivatives.
          Using Z-Vector for PSCF gradient.
          Skipping F1 and S1 gradient terms here.
          IDoAtm=1111111111111111111111111111
          Frozen-core window.
          Direct CPHF calculation.
          Differentiating once with respect to electric field.
                with respect to dipole field.
          Differentiating once with respect to nuclear coordinates.
          Requested convergence is 1.0D-10 RMS, and 1.0D-09 maximum.
          NewPWx=F KeepS1=T KeepF1=T KeepIn=T MapXYZ=F SortEE=F KeepMc=T.
 Keep R1 ints in memory in canonical form, NReq=425201067.
 FoFCou: FMM=F IPFlag=           0 FMFlag=           0 FMFlg1=           0
         NFxFlg=           0 DoJE=F BraDBF=F KetDBF=F FulRan=T
         wScrn=  0.000000 ICntrl=       600 IOpCl=  0 I1Cent=           0 NGrid=           0
         NMat0=    1 NMatS0=  28920 NMatT0=    0 NMatD0=    1 NMtDS0=    0 NMtDT0=    0
 Symmetry not used in FoFCou.
 Two-electron integral symmetry not used.
          MDV=     524288000 using IRadAn=       5.
          Solving linear equations separately, MaxMat=       0.
          There are     1 degrees of freedom in the 1st order CPHF.  IDoFFX=0 NUNeed=     1.
 LinEq1:  Iter=  0 NonCon=     1 RMS=2.55D-03 Max=4.26D-02 NDo=     1
 AX will form     1 AO Fock derivatives at one time.
 LinEq1:  Iter=  1 NonCon=     1 RMS=6.89D-04 Max=1.12D-02 NDo=     1
 LinEq1:  Iter=  2 NonCon=     1 RMS=1.61D-04 Max=4.13D-03 NDo=     1
 LinEq1:  Iter=  3 NonCon=     1 RMS=4.42D-05 Max=5.11D-04 NDo=     1
 LinEq1:  Iter=  4 NonCon=     1 RMS=1.99D-05 Max=8.26D-04 NDo=     1
 LinEq1:  Iter=  5 NonCon=     1 RMS=4.81D-06 Max=8.80D-05 NDo=     1
 LinEq1:  Iter=  6 NonCon=     1 RMS=1.45D-06 Max=2.33D-05 NDo=     1
 LinEq1:  Iter=  7 NonCon=     1 RMS=4.00D-07 Max=4.14D-06 NDo=     1
 LinEq1:  Iter=  8 NonCon=     1 RMS=8.45D-08 Max=1.47D-06 NDo=     1
 LinEq1:  Iter=  9 NonCon=     1 RMS=2.22D-08 Max=5.48D-07 NDo=     1
 LinEq1:  Iter= 10 NonCon=     1 RMS=7.43D-09 Max=1.96D-07 NDo=     1
 LinEq1:  Iter= 11 NonCon=     1 RMS=2.37D-09 Max=7.30D-08 NDo=     1
 LinEq1:  Iter= 12 NonCon=     1 RMS=8.62D-10 Max=1.37D-08 NDo=     1
 LinEq1:  Iter= 13 NonCon=     1 RMS=2.39D-10 Max=3.39D-09 NDo=     1
 LinEq1:  Iter= 14 NonCon=     0 RMS=5.52D-11 Max=6.93D-10 NDo=     1
 Linear equations converged to 1.000D-10 1.000D-09 after    14 iterations.
 End of Minotr F.D. properties file   721 does not exist.
 End of Minotr F.D. properties file   722 does not exist.
 End of Minotr F.D. properties file   788 does not exist.
 Leave Link 1002 at Fri Sep 17 16:02:17 2021, MaxMem=   524288000 cpu:              18.3 elap:              18.3
 (Enter /opt/gaussian/g16_legacy/l601.exe)
 Copying SCF densities to generalized density rwf, IOpCl= 0 IROHF=0.

 **********************************************************************

            Population analysis using the SCF density.

 **********************************************************************

 Orbital symmetries:
       Occupied  (A) (A) (A) (A) (A) (A) (A) (A) (A) (A) (A) (A)
                 (A) (A) (A) (A) (A) (A) (A) (A) (A) (A) (A) (A)
                 (A) (A) (A) (A) (A) (A) (A) (A) (A) (A) (A) (A)
                 (A) (A) (A)
       Virtual   (A) (A) (A) (A) (A) (A) (A) (A) (A) (A) (A) (A)
                 (A) (A) (A) (A) (A) (A) (A) (A) (A) (A) (A) (A)
                 (A) (A) (A) (A) (A) (A) (A) (A) (A) (A) (A) (A)
                 (A) (A) (A) (A) (A) (A) (A) (A) (A) (A) (A) (A)
                 (A) (A) (A) (A) (A) (A) (A) (A) (A) (A) (A) (A)
                 (A) (A) (A) (A) (A) (A) (A) (A) (A) (A) (A) (A)
                 (A) (A) (A) (A) (A) (A) (A) (A) (A) (A) (A) (A)
                 (A) (A) (A) (A) (A) (A) (A) (A) (A) (A) (A) (A)
                 (A) (A) (A) (A) (A) (A) (A) (A) (A) (A) (A) (A)
                 (A) (A) (A) (A) (A) (A) (A) (A) (A) (A) (A) (A)
                 (A) (A) (A) (A) (A) (A) (A) (A) (A) (A) (A) (A)
                 (A) (A) (A) (A) (A) (A) (A) (A) (A) (A) (A) (A)
                 (A) (A) (A) (A) (A) (A) (A) (A) (A) (A) (A) (A)
                 (A) (A) (A) (A) (A) (A) (A) (A) (A) (A) (A) (A)
                 (A) (A) (A) (A) (A) (A) (A) (A) (A) (A) (A) (A)
                 (A) (A) (A) (A) (A) (A) (A) (A) (A) (A) (A) (A)
                 (A) (A) (A) (A) (A) (A) (A) (A) (A)
 The electronic state is 1-A.
 Alpha  occ. eigenvalues --  -11.23059 -11.22492 -11.21994 -11.21919 -11.21894
 Alpha  occ. eigenvalues --  -11.21650 -11.21539 -11.21500 -11.21457 -11.21435
 Alpha  occ. eigenvalues --   -1.10615  -1.08328  -1.01891  -0.98025  -0.93647
 Alpha  occ. eigenvalues --   -0.91775  -0.86738  -0.82690  -0.70609  -0.69412
 Alpha  occ. eigenvalues --   -0.64401  -0.61335  -0.60398  -0.59007  -0.58078
 Alpha  occ. eigenvalues --   -0.56878  -0.55469  -0.55039  -0.53553  -0.51977
 Alpha  occ. eigenvalues --   -0.51779  -0.51261  -0.50451  -0.49764  -0.47237
 Alpha  occ. eigenvalues --   -0.46641  -0.44234  -0.33255  -0.31613
 Alpha virt. eigenvalues --    0.18420   0.19608   0.22268   0.24509   0.24868
 Alpha virt. eigenvalues --    0.27280   0.28582   0.29021   0.30342   0.30570
 Alpha virt. eigenvalues --    0.31453   0.32295   0.32993   0.33605   0.33919
 Alpha virt. eigenvalues --    0.34861   0.36106   0.37175   0.38359   0.39993
 Alpha virt. eigenvalues --    0.40806   0.41938   0.42663   0.44321   0.45311
 Alpha virt. eigenvalues --    0.51885   0.54069   0.61043   0.62387   0.69420
 Alpha virt. eigenvalues --    0.71418   0.71711   0.74322   0.75991   0.76600
 Alpha virt. eigenvalues --    0.77888   0.78838   0.80149   0.80437   0.82525
 Alpha virt. eigenvalues --    0.82865   0.85807   0.89229   0.90311   0.92128
 Alpha virt. eigenvalues --    0.93068   0.94945   0.96558   0.97592   0.99408
 Alpha virt. eigenvalues --    0.99666   1.01111   1.02715   1.04774   1.06343
 Alpha virt. eigenvalues --    1.07246   1.08349   1.08464   1.10884   1.12201
 Alpha virt. eigenvalues --    1.13083   1.13493   1.14141   1.15109   1.15428
 Alpha virt. eigenvalues --    1.15972   1.16404   1.17989   1.18283   1.20093
 Alpha virt. eigenvalues --    1.20925   1.22026   1.22903   1.24887   1.26882
 Alpha virt. eigenvalues --    1.29779   1.39911   1.40850   1.44074   1.45166
 Alpha virt. eigenvalues --    1.46113   1.53926   1.55260   1.57487   1.59003
 Alpha virt. eigenvalues --    1.61322   1.62900   1.65442   1.68693   1.70719
 Alpha virt. eigenvalues --    1.74996   1.83304   1.90942   1.92637   1.95884
 Alpha virt. eigenvalues --    1.98118   2.01342   2.02512   2.04961   2.08419
 Alpha virt. eigenvalues --    2.09275   2.11235   2.11878   2.13547   2.13761
 Alpha virt. eigenvalues --    2.15744   2.17935   2.19183   2.23539   2.27677
 Alpha virt. eigenvalues --    2.27930   2.30153   2.32116   2.34933   2.35557
 Alpha virt. eigenvalues --    2.35639   2.35787   2.39414   2.39797   2.40228
 Alpha virt. eigenvalues --    2.41254   2.41846   2.42898   2.44988   2.45577
 Alpha virt. eigenvalues --    2.47184   2.49017   2.49666   2.49763   2.53206
 Alpha virt. eigenvalues --    2.56183   2.58404   2.60485   2.62610   2.64595
 Alpha virt. eigenvalues --    2.66046   2.67904   2.71570   2.72558   2.74074
 Alpha virt. eigenvalues --    2.76098   2.77695   2.81000   2.82550   2.84078
 Alpha virt. eigenvalues --    2.86960   2.90351   2.92349   2.93717   2.93885
 Alpha virt. eigenvalues --    2.97259   2.98947   3.00897   3.02346   3.04611
 Alpha virt. eigenvalues --    3.06570   3.07048   3.09532   3.11569   3.16236
 Alpha virt. eigenvalues --    3.17176   3.17506   3.19751   3.20510   3.20974
 Alpha virt. eigenvalues --    3.22294   3.25237   3.26471   3.27443   3.37023
 Alpha virt. eigenvalues --    3.39005   3.44381   3.45746   3.55486   3.57316
 Alpha virt. eigenvalues --    3.58492   3.60440   3.67986   3.73334   3.78354
 Alpha virt. eigenvalues --    3.78762   3.80291   3.81206   3.82240   3.82864
 Alpha virt. eigenvalues --    3.83539   3.85732   3.87954   3.89117   3.90865
 Alpha virt. eigenvalues --    3.96059   4.59177   4.62294   4.74495   4.82466
 Alpha virt. eigenvalues --    4.89197   4.92416   4.93233   5.07346   5.10306
 Alpha virt. eigenvalues --    5.16932
          Condensed to atoms (all electrons):
               1          2          3          4          5          6
     1  C    5.000721   0.412390   0.414397   0.339592  -0.058804  -0.000423
     2  H    0.412390   0.583841  -0.030330  -0.045120  -0.004632  -0.000305
     3  H    0.414397  -0.030330   0.576683  -0.040650   0.003303  -0.000036
     4  C    0.339592  -0.045120  -0.040650   4.957279   0.350744  -0.046051
     5  C   -0.058804  -0.004632   0.003303   0.350744   4.895119   0.399658
     6  H   -0.000423  -0.000305  -0.000036  -0.046051   0.399658   0.598086
     7  H    0.003652   0.000092  -0.000107  -0.041413   0.406594  -0.028122
     8  H   -0.003455   0.002509  -0.000014  -0.043214   0.397613  -0.035172
     9  C   -0.043521   0.001834  -0.002305   0.696625  -0.045821  -0.000964
    10  H    0.003081  -0.000112   0.000055  -0.036447  -0.006438   0.000130
    11  C   -0.007010   0.000131  -0.002041  -0.050637   0.003399  -0.000102
    12  H   -0.002040   0.000011  -0.001243  -0.000448   0.000090   0.000001
    13  H    0.000233  -0.000010  -0.000035   0.000512  -0.000102   0.000015
    14  H    0.000216   0.000029   0.000157  -0.001299  -0.000114  -0.000005
    15  C   -0.000105  -0.000032  -0.000001   0.000001  -0.000000  -0.000000
    16  H   -0.000004   0.000001   0.000000   0.000000  -0.000000   0.000000
    17  H    0.000021  -0.000005  -0.000001  -0.000000   0.000000   0.000000
    18  H   -0.000002  -0.000002   0.000002   0.000000  -0.000000  -0.000000
    19  C   -0.002759   0.000934   0.000602  -0.000035   0.000007   0.000017
    20  C    0.000487   0.000129  -0.000011  -0.000018  -0.000017  -0.000029
    21  H    0.000071  -0.000066  -0.000000  -0.000002   0.000000  -0.000001
    22  H    0.000080   0.000148  -0.000011  -0.000063   0.000095   0.000222
    23  H   -0.000041   0.000012   0.000000   0.000001  -0.000000  -0.000000
    24  C   -0.062577  -0.000487  -0.001371   0.006101  -0.000075  -0.000082
    25  H   -0.000349   0.000186   0.001131  -0.000118  -0.000002  -0.000000
    26  C    0.325377  -0.042910  -0.041394  -0.056884  -0.000803   0.000832
    27  H   -0.040027  -0.002360   0.004047  -0.002267  -0.000487  -0.000581
    28  H   -0.045288   0.004397  -0.002682  -0.001368   0.000304   0.000016
               7          8          9         10         11         12
     1  C    0.003652  -0.003455  -0.043521   0.003081  -0.007010  -0.002040
     2  H    0.000092   0.002509   0.001834  -0.000112   0.000131   0.000011
     3  H   -0.000107  -0.000014  -0.002305   0.000055  -0.002041  -0.001243
     4  C   -0.041413  -0.043214   0.696625  -0.036447  -0.050637  -0.000448
     5  C    0.406594   0.397613  -0.045821  -0.006438   0.003399   0.000090
     6  H   -0.028122  -0.035172  -0.000964   0.000130  -0.000102   0.000001
     7  H    0.570201  -0.027580  -0.002763   0.002176   0.000140   0.000004
     8  H   -0.027580   0.593325  -0.000478   0.000245  -0.000113  -0.000001
     9  C   -0.002763  -0.000478   4.940035   0.404561   0.338338  -0.041989
    10  H    0.002176   0.000245   0.404561   0.559883  -0.043636   0.003343
    11  C    0.000140  -0.000113   0.338338  -0.043636   4.903494   0.408014
    12  H    0.000004  -0.000001  -0.041989   0.003343   0.408014   0.575237
    13  H   -0.000008  -0.000004  -0.042710  -0.002622   0.402923  -0.029448
    14  H   -0.000004   0.000021  -0.044536  -0.000245   0.400270  -0.027470
    15  C    0.000000   0.000000  -0.000000   0.000000   0.000000  -0.000000
    16  H    0.000000  -0.000000  -0.000000   0.000000  -0.000000   0.000000
    17  H   -0.000000  -0.000000   0.000000  -0.000000  -0.000000  -0.000000
    18  H   -0.000000  -0.000000   0.000000   0.000000  -0.000000   0.000000
    19  C   -0.000000  -0.000001  -0.000002   0.000000   0.000000   0.000001
    20  C    0.000000  -0.000002  -0.000000  -0.000000  -0.000000   0.000000
    21  H   -0.000000   0.000000   0.000000  -0.000000   0.000000  -0.000000
    22  H   -0.000001   0.000005  -0.000001   0.000000  -0.000000   0.000000
    23  H    0.000000   0.000000   0.000000   0.000000   0.000000   0.000000
    24  C    0.000002   0.000000  -0.000010   0.000002  -0.000022   0.000034
    25  H    0.000000   0.000000   0.000009  -0.000000  -0.000002   0.000035
    26  C   -0.000094   0.000024  -0.003333  -0.000120   0.000493  -0.000174
    27  H   -0.000024   0.000076   0.000498   0.000002  -0.000024  -0.000005
    28  H   -0.000006   0.000006   0.000947  -0.000032   0.000106   0.000114
              13         14         15         16         17         18
     1  C    0.000233   0.000216  -0.000105  -0.000004   0.000021  -0.000002
     2  H   -0.000010   0.000029  -0.000032   0.000001  -0.000005  -0.000002
     3  H   -0.000035   0.000157  -0.000001   0.000000  -0.000001   0.000002
     4  C    0.000512  -0.001299   0.000001   0.000000  -0.000000   0.000000
     5  C   -0.000102  -0.000114  -0.000000  -0.000000   0.000000  -0.000000
     6  H    0.000015  -0.000005  -0.000000   0.000000   0.000000  -0.000000
     7  H   -0.000008  -0.000004   0.000000   0.000000  -0.000000  -0.000000
     8  H   -0.000004   0.000021   0.000000  -0.000000  -0.000000  -0.000000
     9  C   -0.042710  -0.044536  -0.000000  -0.000000   0.000000   0.000000
    10  H   -0.002622  -0.000245   0.000000   0.000000  -0.000000   0.000000
    11  C    0.402923   0.400270   0.000000  -0.000000  -0.000000  -0.000000
    12  H   -0.029448  -0.027470  -0.000000   0.000000  -0.000000   0.000000
    13  H    0.585778  -0.033309  -0.000000  -0.000000   0.000000   0.000000
    14  H   -0.033309   0.585294   0.000000   0.000000  -0.000000  -0.000000
    15  C   -0.000000   0.000000   4.903470   0.399269   0.396992   0.405375
    16  H   -0.000000   0.000000   0.399269   0.593111  -0.034894  -0.027567
    17  H    0.000000  -0.000000   0.396992  -0.034894   0.594249  -0.027359
    18  H    0.000000  -0.000000   0.405375  -0.027567  -0.027359   0.568071
    19  C    0.000000  -0.000000   0.351810  -0.045805  -0.044200  -0.040403
    20  C   -0.000000   0.000000  -0.065370  -0.001091  -0.002145   0.003696
    21  H    0.000000  -0.000000  -0.003426  -0.000508   0.002838   0.000012
    22  H    0.000000  -0.000000   0.003707  -0.000024  -0.000072  -0.000109
    23  H   -0.000000   0.000000  -0.001680   0.002542  -0.000367  -0.000080
    24  C   -0.000002   0.000002  -0.044533  -0.001112  -0.000622  -0.002345
    25  H   -0.000000  -0.000000  -0.006708   0.000153   0.000224   0.002203
    26  C    0.000079  -0.000045   0.003142  -0.000123  -0.000086   0.000141
    27  H    0.000000  -0.000000   0.000062   0.000004  -0.000003   0.000006
    28  H   -0.000059   0.000018  -0.000098   0.000012  -0.000002  -0.000011
              19         20         21         22         23         24
     1  C   -0.002759   0.000487   0.000071   0.000080  -0.000041  -0.062577
     2  H    0.000934   0.000129  -0.000066   0.000148   0.000012  -0.000487
     3  H    0.000602  -0.000011  -0.000000  -0.000011   0.000000  -0.001371
     4  C   -0.000035  -0.000018  -0.000002  -0.000063   0.000001   0.006101
     5  C    0.000007  -0.000017   0.000000   0.000095  -0.000000  -0.000075
     6  H    0.000017  -0.000029  -0.000001   0.000222  -0.000000  -0.000082
     7  H   -0.000000   0.000000  -0.000000  -0.000001   0.000000   0.000002
     8  H   -0.000001  -0.000002   0.000000   0.000005   0.000000   0.000000
     9  C   -0.000002  -0.000000   0.000000  -0.000001   0.000000  -0.000010
    10  H    0.000000  -0.000000  -0.000000   0.000000   0.000000   0.000002
    11  C    0.000000  -0.000000   0.000000  -0.000000   0.000000  -0.000022
    12  H    0.000001   0.000000  -0.000000   0.000000   0.000000   0.000034
    13  H    0.000000  -0.000000   0.000000   0.000000  -0.000000  -0.000002
    14  H   -0.000000   0.000000  -0.000000  -0.000000   0.000000   0.000002
    15  C    0.351810  -0.065370  -0.003426   0.003707  -0.001680  -0.044533
    16  H   -0.045805  -0.001091  -0.000508  -0.000024   0.002542  -0.001112
    17  H   -0.044200  -0.002145   0.002838  -0.000072  -0.000367  -0.000622
    18  H   -0.040403   0.003696   0.000012  -0.000109  -0.000080  -0.002345
    19  C    4.920172   0.348922  -0.043838  -0.036968  -0.043920   0.695511
    20  C    0.348922   4.906823   0.402438   0.405947   0.398574  -0.043599
    21  H   -0.043838   0.402438   0.585546  -0.029644  -0.033081   0.000408
    22  H   -0.036968   0.405947  -0.029644   0.570720  -0.026876  -0.002888
    23  H   -0.043920   0.398574  -0.033081  -0.026876   0.583055  -0.000743
    24  C    0.695511  -0.043599   0.000408  -0.002888  -0.000743   4.962241
    25  H   -0.035970   0.003359  -0.000112   0.000053  -0.000124   0.403009
    26  C   -0.048871  -0.007184   0.000276  -0.002347   0.000191   0.341686
    27  H    0.000559  -0.001879  -0.000035  -0.001473   0.000040  -0.043137
    28  H    0.000972   0.000145  -0.000012   0.000041   0.000033  -0.044008
              25         26         27         28
     1  C   -0.000349   0.325377  -0.040027  -0.045288
     2  H    0.000186  -0.042910  -0.002360   0.004397
     3  H    0.001131  -0.041394   0.004047  -0.002682
     4  C   -0.000118  -0.056884  -0.002267  -0.001368
     5  C   -0.000002  -0.000803  -0.000487   0.000304
     6  H   -0.000000   0.000832  -0.000581   0.000016
     7  H    0.000000  -0.000094  -0.000024  -0.000006
     8  H    0.000000   0.000024   0.000076   0.000006
     9  C    0.000009  -0.003333   0.000498   0.000947
    10  H   -0.000000  -0.000120   0.000002  -0.000032
    11  C   -0.000002   0.000493  -0.000024   0.000106
    12  H    0.000035  -0.000174  -0.000005   0.000114
    13  H   -0.000000   0.000079   0.000000  -0.000059
    14  H   -0.000000  -0.000045  -0.000000   0.000018
    15  C   -0.006708   0.003142   0.000062  -0.000098
    16  H    0.000153  -0.000123   0.000004   0.000012
    17  H    0.000224  -0.000086  -0.000003  -0.000002
    18  H    0.002203   0.000141   0.000006  -0.000011
    19  C   -0.035970  -0.048871   0.000559   0.000972
    20  C    0.003359  -0.007184  -0.001879   0.000145
    21  H   -0.000112   0.000276  -0.000035  -0.000012
    22  H    0.000053  -0.002347  -0.001473   0.000041
    23  H   -0.000124   0.000191   0.000040   0.000033
    24  C    0.403009   0.341686  -0.043137  -0.044008
    25  H    0.558257  -0.041949   0.003304  -0.003531
    26  C   -0.041949   4.978501   0.414993   0.415010
    27  H    0.003304   0.414993   0.579648  -0.029805
    28  H   -0.003531   0.415010  -0.029805   0.581243
 Mulliken charges:
               1
     1  C   -0.233913
     2  H    0.119730
     3  H    0.121854
     4  C    0.015179
     5  C   -0.339631
     6  H    0.112894
     7  H    0.117262
     8  H    0.116208
     9  C   -0.154413
    10  H    0.116172
    11  C   -0.353720
    12  H    0.115934
    13  H    0.118770
    14  H    0.121020
    15  C   -0.341876
    16  H    0.116037
    17  H    0.115434
    18  H    0.118371
    19  C    0.023265
    20  C   -0.349176
    21  H    0.119136
    22  H    0.119459
    23  H    0.122463
    24  C   -0.161383
    25  H    0.116944
    26  C   -0.234426
    27  H    0.118869
    28  H    0.123538
 Sum of Mulliken charges =  -0.00000
 Mulliken charges with hydrogens summed into heavy atoms:
               1
     1  C    0.007670
     4  C    0.015179
     5  C    0.006733
     9  C   -0.038241
    11  C    0.002004
    15  C    0.007965
    19  C    0.023265
    20  C    0.011882
    24  C   -0.044439
    26  C    0.007981
 Electronic spatial extent (au):  <R**2>=           2544.9957
 Charge=             -0.0000 electrons
 Dipole moment (field-independent basis, Debye):
    X=              0.3491    Y=              0.1467    Z=              0.0264  Tot=              0.3796
 Quadrupole moment (field-independent basis, Debye-Ang):
   XX=            -63.8832   YY=            -63.9181   ZZ=            -67.2163
   XY=              0.9688   XZ=              0.9084   YZ=             -0.2413
 Traceless Quadrupole moment (field-independent basis, Debye-Ang):
   XX=              1.1226   YY=              1.0878   ZZ=             -2.2104
   XY=              0.9688   XZ=              0.9084   YZ=             -0.2413
 Octapole moment (field-independent basis, Debye-Ang**2):
  XXX=              0.9249  YYY=             -2.8072  ZZZ=              0.8876  XYY=             -0.2821
  XXY=              1.7973  XXZ=             -2.7156  XZZ=              1.8072  YZZ=              1.3748
  YYZ=              0.5298  XYZ=             -0.3808
 Hexadecapole moment (field-independent basis, Debye-Ang**3):
 XXXX=          -2708.1677 YYYY=           -641.3496 ZZZZ=           -161.4606 XXXY=              7.6940
 XXXZ=             11.8650 YYYX=             -8.1779 YYYZ=             -1.4949 ZZZX=              2.8104
 ZZZY=              1.9616 XXYY=           -565.0369 XXZZ=           -492.0496 YYZZ=           -130.8318
 XXYZ=             -3.0938 YYXZ=              1.7828 ZZXY=              8.1565
 N-N= 5.132774520994D+02 E-N=-1.931189271988D+03  KE= 3.886245081291D+02
 No NMR shielding tensors so no spin-rotation constants.
 Leave Link  601 at Fri Sep 17 16:02:17 2021, MaxMem=   524288000 cpu:               0.2 elap:               0.2
 (Enter /opt/gaussian/g16_legacy/l701.exe)
 ... and contract with generalized density number  2.
 Compute integral first derivatives.
 Leave Link  701 at Fri Sep 17 16:02:18 2021, MaxMem=   524288000 cpu:               0.2 elap:               0.2
 (Enter /opt/gaussian/g16_legacy/l702.exe)
 L702 exits ... SP integral derivatives will be done elsewhere.
 Leave Link  702 at Fri Sep 17 16:02:18 2021, MaxMem=   524288000 cpu:               0.0 elap:               0.0
 (Enter /opt/gaussian/g16_legacy/l703.exe)
 Integral derivatives from FoFJK, PRISM(SPDF).
 Compute integral first derivatives, UseDBF=F ICtDFT=           0.
 Calling FoFJK, ICntrl=  10002127 FMM=F ISym2X=0 I1Cent= 0 IOpClX= 0 NMat=1 NMatS=1 NMatT=0.
 FoFJK:  IHMeth= 1 ICntrl=10002127 DoSepK=F KAlg= 0 I1Cent=           0 FoldK=F
 IRaf=         0 NMat=       1 IRICut=       1 DoRegI=T DoRafI=F ISym2E= 0 IDoP0=0 IntGTp=1.
 FoFCou: FMM=F IPFlag=           0 FMFlag=      100000 FMFlg1=         800
         NFxFlg=           0 DoJE=F BraDBF=F KetDBF=F FulRan=T
         wScrn=  0.000000 ICntrl=  10002127 IOpCl=  0 I1Cent=           0 NGrid=           0
         NMat0=    1 NMatS0=      1 NMatT0=    0 NMatD0=    1 NMtDS0=    0 NMtDT0=    0
 Symmetry not used in FoFCou.
 Leave Link  703 at Fri Sep 17 16:02:37 2021, MaxMem=   524288000 cpu:              18.9 elap:              18.9
 (Enter /opt/gaussian/g16_legacy/l716.exe)
 Dipole        = 1.00094130D-01 3.50111699D-02 3.69881390D-03
 ***** Axes restored to original set *****
 -------------------------------------------------------------------
 Center     Atomic                   Forces (Hartrees/Bohr)
 Number     Number              X              Y              Z
 -------------------------------------------------------------------
      1        6          -0.008008593    0.003307085    0.002507639
      2        1          -0.000468435   -0.003879485   -0.002131978
      3        1           0.000133038   -0.002426024   -0.003087383
      4        6          -0.002581077    0.005377180    0.001395787
      5        6          -0.002760077    0.000023433   -0.001173221
      6        1           0.000620442    0.003183308    0.000782681
      7        1           0.002743823   -0.001823330    0.002513455
      8        1           0.001041988   -0.002456076   -0.001997622
      9        6           0.002082100   -0.001484782   -0.002627532
     10        1           0.003372436    0.000558158   -0.000992927
     11        6           0.000808128   -0.001755404    0.002080992
     12        1          -0.001851968    0.002448819   -0.001614416
     13        1           0.000425175    0.002365583    0.002520866
     14        1          -0.000048252   -0.003381855    0.000397331
     15        6          -0.001059092   -0.000870509    0.003083498
     16        1           0.000848061    0.003067875    0.001108648
     17        1           0.001312444   -0.002826444   -0.001637731
     18        1          -0.000852790    0.001699893   -0.003907406
     19        6          -0.001345081    0.000584672    0.005279228
     20        6          -0.003667775    0.001430588   -0.002513412
     21        1           0.000365506   -0.003614682   -0.000672648
     22        1           0.001393349   -0.002434979    0.002082838
     23        1           0.000913996    0.002929274    0.000622225
     24        6          -0.001849191   -0.003278989   -0.003472422
     25        1           0.002729677    0.001445685   -0.001346733
     26        6           0.006398291   -0.004286041   -0.000167927
     27        1           0.000233109    0.001948216    0.002596629
     28        1          -0.000929234    0.004148829    0.000371541
 -------------------------------------------------------------------
 Cartesian Forces:  Max     0.008008593 RMS     0.002534847
 Leave Link  716 at Fri Sep 17 16:02:37 2021, MaxMem=   524288000 cpu:               0.0 elap:               0.0
 (Enter /opt/gaussian/g16_legacy/l103.exe)

 GradGradGradGradGradGradGradGradGradGradGradGradGradGradGradGradGradGrad
 Berny optimization.
 FormGI is forming the generalized inverse of G from B-inverse, IUseBI=4.
 Internal  Forces:  Max     0.004106538 RMS     0.001892266
 Search for a local minimum.
 Step number   1 out of a maximum of  138
 All quantities printed in internal units (Hartrees-Bohrs-Radians)
 RMS Force = .18923D-02 SwitMx=.10000D-02 MixMth= 1
 Mixed Optimization -- RFO/linear search
 Second derivative matrix not updated -- first step.
 ITU=  0
     Eigenvalues ---    0.00342   0.00570   0.00668   0.00680   0.00693
     Eigenvalues ---    0.00715   0.00819   0.01219   0.01287   0.01570
     Eigenvalues ---    0.01642   0.02780   0.02785   0.04014   0.04132
     Eigenvalues ---    0.05351   0.05403   0.06981   0.07039   0.07087
     Eigenvalues ---    0.07092   0.07266   0.07300   0.07347   0.07505
     Eigenvalues ---    0.09279   0.09365   0.12770   0.12846   0.15999
     Eigenvalues ---    0.15999   0.16000   0.16000   0.16000   0.16000
     Eigenvalues ---    0.16000   0.16000   0.16000   0.16000   0.16000
     Eigenvalues ---    0.16000   0.16000   0.16000   0.21860   0.21867
     Eigenvalues ---    0.22000   0.22000   0.24993   0.24996   0.24998
     Eigenvalues ---    0.24999   0.29236   0.30871   0.31611   0.31702
     Eigenvalues ---    0.31805   0.31974   0.32805   0.33857   0.33929
     Eigenvalues ---    0.34076   0.34190   0.34222   0.34229   0.34245
     Eigenvalues ---    0.34252   0.34258   0.34263   0.34268   0.34289
     Eigenvalues ---    0.34291   0.34335   0.34540   0.34548   0.34792
     Eigenvalues ---    0.34842   0.55498   0.55593
 RFO step:  Lambda=-2.86564897D-03 EMin= 3.42206057D-03
 Linear search not attempted -- first point.
 Iteration  1 RMS(Cart)=  0.04043005 RMS(Int)=  0.00070789
 Iteration  2 RMS(Cart)=  0.00101748 RMS(Int)=  0.00015579
 Iteration  3 RMS(Cart)=  0.00000056 RMS(Int)=  0.00015579
 ITry= 1 IFail=0 DXMaxC= 1.35D-01 DCOld= 1.00D+10 DXMaxT= 3.00D-01 DXLimC= 3.00D+00 Rises=F
 Variable       Old X    -DE/DX   Delta X   Delta X   Delta X     New X
                                 (Linear)    (Quad)   (Total)
    R1        2.07572  -0.00313   0.00000  -0.00917  -0.00917   2.06655
    R2        2.07201  -0.00286   0.00000  -0.00833  -0.00833   2.06368
    R3        2.86260  -0.00349   0.00000  -0.01120  -0.01120   2.85140
    R4        2.89512   0.00159   0.00000   0.00540   0.00540   2.90053
    R5        2.84862  -0.00061   0.00000  -0.00190  -0.00190   2.84672
    R6        2.54692  -0.00390   0.00000  -0.00699  -0.00699   2.53992
    R7        2.06845  -0.00174   0.00000  -0.00502  -0.00502   2.06343
    R8        2.06957  -0.00374   0.00000  -0.01084  -0.01084   2.05873
    R9        2.06896  -0.00210   0.00000  -0.00607  -0.00607   2.06290
   R10        2.05932  -0.00220   0.00000  -0.00628  -0.00628   2.05305
   R11        2.82695   0.00309   0.00000   0.00934   0.00934   2.83629
   R12        2.06415  -0.00307   0.00000  -0.00882  -0.00882   2.05532
   R13        2.06889  -0.00265   0.00000  -0.00768  -0.00768   2.06121
   R14        2.06769  -0.00160   0.00000  -0.00461  -0.00461   2.06307
   R15        2.06919  -0.00201   0.00000  -0.00583  -0.00583   2.06337
   R16        2.06907  -0.00198   0.00000  -0.00572  -0.00572   2.06335
   R17        2.06945  -0.00395   0.00000  -0.01145  -0.01145   2.05800
   R18        2.84693  -0.00076   0.00000  -0.00238  -0.00238   2.84455
   R19        2.84191  -0.00048   0.00000  -0.00150  -0.00150   2.84041
   R20        2.54609  -0.00314   0.00000  -0.00563  -0.00563   2.54046
   R21        2.07011  -0.00272   0.00000  -0.00789  -0.00789   2.06222
   R22        2.06428  -0.00292   0.00000  -0.00840  -0.00840   2.05588
   R23        2.06880  -0.00187   0.00000  -0.00541  -0.00541   2.06339
   R24        2.06014  -0.00204   0.00000  -0.00581  -0.00581   2.05433
   R25        2.84501  -0.00139   0.00000  -0.00434  -0.00434   2.84068
   R26        2.06843  -0.00240   0.00000  -0.00693  -0.00693   2.06149
   R27        2.07451  -0.00278   0.00000  -0.00812  -0.00812   2.06638
    A1        1.82999   0.00205   0.00000   0.02217   0.02201   1.85199
    A2        1.90132  -0.00008   0.00000   0.00125   0.00125   1.90258
    A3        1.91808  -0.00274   0.00000  -0.02399  -0.02402   1.89406
    A4        1.93139  -0.00019   0.00000   0.00543   0.00545   1.93684
    A5        1.91971  -0.00200   0.00000  -0.01367  -0.01371   1.90600
    A6        1.95890   0.00286   0.00000   0.00932   0.00936   1.96826
    A7        2.00718   0.00172   0.00000   0.00712   0.00657   2.01375
    A8        2.17211  -0.00411   0.00000  -0.01586  -0.01638   2.15573
    A9        2.10369   0.00240   0.00000   0.00990   0.00935   2.11304
   A10        1.92852   0.00227   0.00000   0.01211   0.01214   1.94065
   A11        1.95928  -0.00266   0.00000  -0.01339  -0.01335   1.94592
   A12        1.92471   0.00167   0.00000   0.00913   0.00915   1.93386
   A13        1.87687   0.00056   0.00000   0.00558   0.00561   1.88248
   A14        1.89466  -0.00306   0.00000  -0.02456  -0.02456   1.87010
   A15        1.87763   0.00111   0.00000   0.01031   0.01034   1.88797
   A16        2.06928  -0.00195   0.00000  -0.01345  -0.01347   2.05581
   A17        2.22595  -0.00183   0.00000  -0.00816  -0.00818   2.21777
   A18        1.98783   0.00378   0.00000   0.02178   0.02176   2.00959
   A19        1.98080  -0.00284   0.00000  -0.01744  -0.01736   1.96344
   A20        1.91011   0.00237   0.00000   0.01549   0.01543   1.92554
   A21        1.91731   0.00385   0.00000   0.02271   0.02267   1.93998
   A22        1.87284   0.00045   0.00000   0.00445   0.00451   1.87735
   A23        1.89298  -0.00096   0.00000  -0.00753  -0.00744   1.88555
   A24        1.88720  -0.00306   0.00000  -0.01878  -0.01894   1.86826
   A25        1.89485  -0.00313   0.00000  -0.02543  -0.02542   1.86943
   A26        1.87883   0.00091   0.00000   0.00788   0.00791   1.88675
   A27        1.92345   0.00175   0.00000   0.00880   0.00882   1.93227
   A28        1.87911   0.00092   0.00000   0.00941   0.00945   1.88856
   A29        1.92495   0.00221   0.00000   0.01240   0.01242   1.93737
   A30        1.96063  -0.00277   0.00000  -0.01389  -0.01385   1.94678
   A31        1.99471   0.00146   0.00000   0.00582   0.00580   2.00051
   A32        2.10554   0.00190   0.00000   0.00755   0.00753   2.11307
   A33        2.18289  -0.00336   0.00000  -0.01326  -0.01328   2.16960
   A34        1.92083   0.00001   0.00000  -0.00091  -0.00089   1.91994
   A35        1.97927  -0.00212   0.00000  -0.00956  -0.00954   1.96973
   A36        1.92166   0.00225   0.00000   0.01141   0.01143   1.93309
   A37        1.86364   0.00194   0.00000   0.01653   0.01654   1.88018
   A38        1.89075  -0.00238   0.00000  -0.02154  -0.02152   1.86923
   A39        1.88481   0.00022   0.00000   0.00328   0.00330   1.88811
   A40        2.06741  -0.00180   0.00000  -0.01220  -0.01260   2.05481
   A41        2.22778  -0.00177   0.00000  -0.00776  -0.00817   2.21961
   A42        1.98786   0.00358   0.00000   0.02078   0.02036   2.00822
   A43        1.94450   0.00330   0.00000   0.01366   0.01370   1.95820
   A44        1.93095  -0.00168   0.00000  -0.01701  -0.01709   1.91386
   A45        1.91626  -0.00336   0.00000  -0.02306  -0.02326   1.89300
   A46        1.94484  -0.00129   0.00000  -0.00741  -0.00735   1.93749
   A47        1.88215   0.00136   0.00000   0.02211   0.02222   1.90437
   A48        1.84158   0.00156   0.00000   0.01206   0.01181   1.85339
    D1        0.64493  -0.00074   0.00000   0.02462   0.02439   0.66931
    D2       -2.47484  -0.00169   0.00000  -0.03649  -0.03631  -2.51116
    D3        2.64803   0.00158   0.00000   0.05500   0.05481   2.70284
    D4       -0.47173   0.00062   0.00000  -0.00610  -0.00589  -0.47763
    D5       -1.48330   0.00090   0.00000   0.04796   0.04777  -1.43553
    D6        1.68011  -0.00005   0.00000  -0.01314  -0.01293   1.66719
    D7        1.04070  -0.00078   0.00000  -0.01201  -0.01192   1.02878
    D8       -1.13301  -0.00027   0.00000   0.00018   0.00030  -1.13270
    D9        3.12456   0.00082   0.00000   0.00917   0.00907   3.13364
   D10       -0.96544  -0.00055   0.00000  -0.01732  -0.01733  -0.98276
   D11       -3.13915  -0.00005   0.00000  -0.00514  -0.00510   3.13894
   D12        1.11842   0.00104   0.00000   0.00385   0.00367   1.12209
   D13       -3.12383  -0.00088   0.00000  -0.02093  -0.02087   3.13849
   D14        0.98565  -0.00037   0.00000  -0.00874  -0.00864   0.97700
   D15       -1.03997   0.00072   0.00000   0.00025   0.00013  -1.03984
   D16        1.05677  -0.00117   0.00000  -0.05453  -0.05481   1.00196
[...]
                 (A) (A) (A) (A) (A) (A) (A) (A) (A) (A) (A) (A)
                 (A) (A) (A) (A) (A) (A) (A) (A) (A) (A) (A) (A)
                 (A) (A) (A) (A) (A) (A) (A) (A) (A) (A) (A) (A)
                 (A) (A) (A) (A) (A) (A) (A) (A) (A) (A) (A) (A)
                 (A) (A) (A) (A) (A) (A) (A) (A) (A) (A) (A) (A)
                 (A) (A) (A) (A) (A) (A) (A) (A) (A) (A) (A) (A)
                 (A) (A) (A) (A) (A) (A) (A) (A) (A) (A) (A) (A)
                 (A) (A) (A) (A) (A) (A) (A) (A) (A) (A) (A) (A)
                 (A) (A) (A) (A) (A) (A) (A) (A) (A) (A) (A) (A)
                 (A) (A) (A) (A) (A) (A) (A) (A) (A) (A) (A) (A)
                 (A) (A) (A) (A) (A) (A) (A) (A) (A) (A) (A) (A)
                 (A) (A) (A) (A) (A) (A) (A) (A) (A) (A) (A) (A)
                 (A) (A) (A) (A) (A) (A) (A) (A) (A)
 The electronic state is 1-A.
 Alpha  occ. eigenvalues --  -11.23028 -11.22456 -11.21863 -11.21726 -11.21721
 Alpha  occ. eigenvalues --  -11.21541 -11.21497 -11.21449 -11.21393 -11.21358
 Alpha  occ. eigenvalues --   -1.10803  -1.08495  -1.01828  -0.98138  -0.93839
 Alpha  occ. eigenvalues --   -0.91936  -0.86954  -0.82861  -0.70567  -0.69489
 Alpha  occ. eigenvalues --   -0.64754  -0.61539  -0.60720  -0.58828  -0.58414
 Alpha  occ. eigenvalues --   -0.56814  -0.55405  -0.54979  -0.53298  -0.52217
 Alpha  occ. eigenvalues --   -0.51714  -0.51214  -0.50653  -0.50166  -0.47383
 Alpha  occ. eigenvalues --   -0.46917  -0.44458  -0.33328  -0.31563
 Alpha virt. eigenvalues --    0.18100   0.19932   0.22053   0.24536   0.24955
 Alpha virt. eigenvalues --    0.27424   0.28601   0.28877   0.30353   0.30694
 Alpha virt. eigenvalues --    0.31966   0.32601   0.32969   0.33726   0.34466
 Alpha virt. eigenvalues --    0.35524   0.36421   0.37370   0.38662   0.39972
 Alpha virt. eigenvalues --    0.40998   0.42095   0.42777   0.44262   0.45477
 Alpha virt. eigenvalues --    0.51938   0.54227   0.61292   0.62632   0.69521
 Alpha virt. eigenvalues --    0.71676   0.71855   0.74127   0.75627   0.76300
 Alpha virt. eigenvalues --    0.77310   0.78587   0.80192   0.80428   0.82510
 Alpha virt. eigenvalues --    0.83060   0.85963   0.89706   0.90634   0.91906
 Alpha virt. eigenvalues --    0.92727   0.94246   0.96733   0.97890   0.99038
 Alpha virt. eigenvalues --    0.99663   1.01316   1.02330   1.04636   1.06421
 Alpha virt. eigenvalues --    1.06946   1.08561   1.08610   1.11036   1.12563
 Alpha virt. eigenvalues --    1.13528   1.14242   1.14315   1.15516   1.15561
 Alpha virt. eigenvalues --    1.15995   1.16443   1.18511   1.18881   1.20423
 Alpha virt. eigenvalues --    1.21361   1.22874   1.23837   1.26678   1.27279
 Alpha virt. eigenvalues --    1.29587   1.40505   1.41229   1.45131   1.46302
 Alpha virt. eigenvalues --    1.47303   1.54539   1.56916   1.57904   1.58162
 Alpha virt. eigenvalues --    1.61580   1.62900   1.65166   1.67986   1.70099
 Alpha virt. eigenvalues --    1.73688   1.82808   1.91105   1.92024   1.96649
 Alpha virt. eigenvalues --    1.98629   2.01394   2.02264   2.04662   2.08570
 Alpha virt. eigenvalues --    2.09659   2.11023   2.11867   2.13286   2.14333
 Alpha virt. eigenvalues --    2.15615   2.17830   2.19386   2.23464   2.28302
 Alpha virt. eigenvalues --    2.29342   2.30634   2.33018   2.35331   2.35655
 Alpha virt. eigenvalues --    2.35947   2.36091   2.39306   2.40246   2.40800
 Alpha virt. eigenvalues --    2.42218   2.43338   2.43738   2.45452   2.46063
 Alpha virt. eigenvalues --    2.47468   2.49490   2.50160   2.50478   2.53353
 Alpha virt. eigenvalues --    2.56171   2.59443   2.61268   2.62977   2.65059
 Alpha virt. eigenvalues --    2.67062   2.68311   2.71449   2.72617   2.74255
 Alpha virt. eigenvalues --    2.76086   2.77474   2.80595   2.82947   2.83712
 Alpha virt. eigenvalues --    2.86556   2.90534   2.92645   2.94406   2.94575
 Alpha virt. eigenvalues --    2.97681   2.98672   3.01242   3.02716   3.05048
 Alpha virt. eigenvalues --    3.06983   3.08131   3.09712   3.12652   3.17075
 Alpha virt. eigenvalues --    3.17580   3.18813   3.20184   3.20611   3.22303
 Alpha virt. eigenvalues --    3.23445   3.25849   3.26685   3.27777   3.38376
 Alpha virt. eigenvalues --    3.40097   3.45764   3.46979   3.56086   3.58279
 Alpha virt. eigenvalues --    3.59222   3.61997   3.68641   3.74872   3.78914
 Alpha virt. eigenvalues --    3.79698   3.81279   3.82681   3.83341   3.84006
 Alpha virt. eigenvalues --    3.84104   3.86511   3.88184   3.89137   3.91421
 Alpha virt. eigenvalues --    3.97579   4.59401   4.62757   4.74521   4.82179
 Alpha virt. eigenvalues --    4.89167   4.92294   4.93230   5.07407   5.10903
 Alpha virt. eigenvalues --    5.17835
          Condensed to atoms (all electrons):
               1          2          3          4          5          6
     1  C    5.003997   0.412745   0.413411   0.339222  -0.057161  -0.000045
     2  H    0.412745   0.584867  -0.028359  -0.045647  -0.004621  -0.000557
     3  H    0.413411  -0.028359   0.576310  -0.039654   0.003215  -0.000012
     4  C    0.339222  -0.045647  -0.039654   4.951262   0.352880  -0.045807
     5  C   -0.057161  -0.004621   0.003215   0.352880   4.891657   0.400489
     6  H   -0.000045  -0.000557  -0.000012  -0.045807   0.400489   0.599593
     7  H    0.003819   0.000114  -0.000111  -0.042642   0.407271  -0.027516
     8  H   -0.003571   0.002410  -0.000037  -0.041600   0.397676  -0.037732
     9  C   -0.046575   0.002347  -0.001941   0.696859  -0.046080  -0.000883
    10  H    0.003280  -0.000115   0.000029  -0.037937  -0.006573   0.000143
    11  C   -0.007739   0.000152  -0.002699  -0.049997   0.003357  -0.000102
    12  H   -0.002166   0.000038  -0.001508  -0.000577   0.000102  -0.000002
    13  H    0.000295  -0.000013  -0.000067  -0.000357  -0.000097   0.000016
    14  H    0.000167   0.000018   0.000160  -0.000541  -0.000105  -0.000004
    15  C   -0.000102  -0.000045  -0.000001   0.000002  -0.000000  -0.000000
    16  H   -0.000005   0.000002   0.000000   0.000000  -0.000000   0.000000
    17  H    0.000024  -0.000008  -0.000001  -0.000000   0.000000   0.000000
    18  H   -0.000003  -0.000002   0.000002   0.000000  -0.000000  -0.000000
    19  C   -0.004098   0.001256   0.000622  -0.000004   0.000007   0.000021
    20  C    0.000549   0.000191  -0.000016  -0.000019  -0.000025  -0.000043
    21  H    0.000120  -0.000099  -0.000001  -0.000004   0.000001  -0.000001
    22  H   -0.000058   0.000094  -0.000011  -0.000061   0.000096   0.000361
    23  H   -0.000041   0.000017   0.000000   0.000001  -0.000000  -0.000000
    24  C   -0.062090   0.000057  -0.001230   0.006210  -0.000074  -0.000104
    25  H   -0.000091   0.000171   0.001049  -0.000105  -0.000002  -0.000000
    26  C    0.331129  -0.045730  -0.042384  -0.055684  -0.001011   0.000669
    27  H   -0.042601  -0.002340   0.004316  -0.002245  -0.000436  -0.000466
    28  H   -0.046716   0.004692  -0.002896  -0.001441   0.000280  -0.000003
               7          8          9         10         11         12
     1  C    0.003819  -0.003571  -0.046575   0.003280  -0.007739  -0.002166
     2  H    0.000114   0.002410   0.002347  -0.000115   0.000152   0.000038
     3  H   -0.000111  -0.000037  -0.001941   0.000029  -0.002699  -0.001508
     4  C   -0.042642  -0.041600   0.696859  -0.037937  -0.049997  -0.000577
     5  C    0.407271   0.397676  -0.046080  -0.006573   0.003357   0.000102
     6  H   -0.027516  -0.037732  -0.000883   0.000143  -0.000102  -0.000002
     7  H    0.568320  -0.026708  -0.002982   0.002347   0.000133   0.000005
     8  H   -0.026708   0.591603  -0.000465   0.000218  -0.000104   0.000001
     9  C   -0.002982  -0.000465   4.938271   0.404337   0.340912  -0.043875
    10  H    0.002347   0.000218   0.404337   0.559262  -0.041317   0.003330
    11  C    0.000133  -0.000104   0.340912  -0.041317   4.898015   0.409145
    12  H    0.000005   0.000001  -0.043875   0.003330   0.409145   0.577276
    13  H   -0.000005  -0.000004  -0.041711  -0.001238   0.401889  -0.029082
    14  H   -0.000006   0.000017  -0.041774  -0.001163   0.401438  -0.027817
    15  C    0.000000   0.000000  -0.000000   0.000000   0.000000  -0.000000
    16  H    0.000000   0.000000  -0.000000   0.000000  -0.000000   0.000000
    17  H   -0.000000  -0.000000   0.000000  -0.000000  -0.000000  -0.000000
    18  H   -0.000000  -0.000000  -0.000000   0.000000  -0.000000   0.000000
    19  C   -0.000000  -0.000001  -0.000003   0.000000   0.000000   0.000001
    20  C    0.000000  -0.000001  -0.000000  -0.000000  -0.000000   0.000000
    21  H   -0.000000   0.000000   0.000000  -0.000000   0.000000  -0.000000
    22  H   -0.000001  -0.000000  -0.000001   0.000000  -0.000000   0.000000
    23  H    0.000000   0.000000   0.000000   0.000000   0.000000   0.000000
    24  C    0.000002   0.000003   0.000036   0.000002  -0.000027   0.000064
    25  H    0.000000   0.000000   0.000007  -0.000000  -0.000002   0.000025
    26  C   -0.000108   0.000075  -0.004455  -0.000120   0.000509  -0.000554
    27  H   -0.000040   0.000058   0.000648   0.000001  -0.000030  -0.000004
    28  H   -0.000004   0.000005   0.001236  -0.000038   0.000051   0.000016
              13         14         15         16         17         18
     1  C    0.000295   0.000167  -0.000102  -0.000005   0.000024  -0.000003
     2  H   -0.000013   0.000018  -0.000045   0.000002  -0.000008  -0.000002
     3  H   -0.000067   0.000160  -0.000001   0.000000  -0.000001   0.000002
     4  C   -0.000357  -0.000541   0.000002   0.000000  -0.000000   0.000000
     5  C   -0.000097  -0.000105  -0.000000  -0.000000   0.000000  -0.000000
     6  H    0.000016  -0.000004  -0.000000   0.000000   0.000000  -0.000000
     7  H   -0.000005  -0.000006   0.000000   0.000000  -0.000000  -0.000000
     8  H   -0.000004   0.000017   0.000000   0.000000  -0.000000  -0.000000
     9  C   -0.041711  -0.041774  -0.000000  -0.000000   0.000000  -0.000000
    10  H   -0.001238  -0.001163   0.000000   0.000000  -0.000000   0.000000
    11  C    0.401889   0.401438   0.000000  -0.000000  -0.000000  -0.000000
    12  H   -0.029082  -0.027817  -0.000000   0.000000  -0.000000   0.000000
    13  H    0.585672  -0.035520  -0.000000  -0.000000   0.000000  -0.000000
    14  H   -0.035520   0.584890   0.000000   0.000000  -0.000000  -0.000000
    15  C   -0.000000   0.000000   4.900552   0.398829   0.398175   0.406165
    16  H   -0.000000   0.000000   0.398829   0.593696  -0.037823  -0.026546
    17  H    0.000000  -0.000000   0.398175  -0.037823   0.594540  -0.026667
    18  H   -0.000000  -0.000000   0.406165  -0.026546  -0.026667   0.565965
    19  C    0.000000  -0.000000   0.353472  -0.044307  -0.043823  -0.041665
    20  C   -0.000000   0.000000  -0.065053  -0.001177  -0.001990   0.003789
    21  H    0.000000  -0.000000  -0.002670  -0.000486   0.002769  -0.000029
    22  H    0.000000  -0.000000   0.003758  -0.000032  -0.000068  -0.000115
    23  H   -0.000000   0.000000  -0.002204   0.002752  -0.000448  -0.000055
    24  C   -0.000007   0.000002  -0.044228  -0.001279  -0.000470  -0.002577
    25  H   -0.000000  -0.000000  -0.006998   0.000188   0.000180   0.002368
    26  C    0.000149  -0.000037   0.003136  -0.000128  -0.000071   0.000144
    27  H   -0.000000  -0.000000   0.000050   0.000006  -0.000004   0.000007
    28  H   -0.000081   0.000025  -0.000091   0.000009  -0.000002  -0.000009
              19         20         21         22         23         24
     1  C   -0.004098   0.000549   0.000120  -0.000058  -0.000041  -0.062090
     2  H    0.001256   0.000191  -0.000099   0.000094   0.000017   0.000057
     3  H    0.000622  -0.000016  -0.000001  -0.000011   0.000000  -0.001230
     4  C   -0.000004  -0.000019  -0.000004  -0.000061   0.000001   0.006210
     5  C    0.000007  -0.000025   0.000001   0.000096  -0.000000  -0.000074
     6  H    0.000021  -0.000043  -0.000001   0.000361  -0.000000  -0.000104
     7  H   -0.000000   0.000000  -0.000000  -0.000001   0.000000   0.000002
     8  H   -0.000001  -0.000001   0.000000  -0.000000   0.000000   0.000003
     9  C   -0.000003  -0.000000   0.000000  -0.000001   0.000000   0.000036
    10  H    0.000000  -0.000000  -0.000000   0.000000   0.000000   0.000002
    11  C    0.000000  -0.000000   0.000000  -0.000000   0.000000  -0.000027
    12  H    0.000001   0.000000  -0.000000   0.000000   0.000000   0.000064
    13  H    0.000000  -0.000000   0.000000   0.000000  -0.000000  -0.000007
    14  H   -0.000000   0.000000  -0.000000  -0.000000   0.000000   0.000002
    15  C    0.353472  -0.065053  -0.002670   0.003758  -0.002204  -0.044228
    16  H   -0.044307  -0.001177  -0.000486  -0.000032   0.002752  -0.001279
    17  H   -0.043823  -0.001990   0.002769  -0.000068  -0.000448  -0.000470
    18  H   -0.041665   0.003789  -0.000029  -0.000115  -0.000055  -0.002577
    19  C    4.915064   0.350683  -0.043358  -0.037727  -0.043642   0.696285
    20  C    0.350683   4.904567   0.401034   0.406928   0.400306  -0.044156
    21  H   -0.043358   0.401034   0.586876  -0.028092  -0.035758  -0.000024
    22  H   -0.037727   0.406928  -0.028092   0.570628  -0.026774  -0.003150
    23  H   -0.043642   0.400306  -0.035758  -0.026774   0.585123  -0.000377
    24  C    0.696285  -0.044156  -0.000024  -0.003150  -0.000377   4.960935
    25  H   -0.038332   0.003541  -0.000122   0.000051  -0.000120   0.403960
    26  C   -0.049354  -0.007949   0.000348  -0.002567   0.000140   0.340992
    27  H    0.000417  -0.002567  -0.000063  -0.001998   0.000086  -0.044503
    28  H    0.001446   0.000178  -0.000014   0.000062   0.000024  -0.041006
              25         26         27         28
     1  C   -0.000091   0.331129  -0.042601  -0.046716
     2  H    0.000171  -0.045730  -0.002340   0.004692
     3  H    0.001049  -0.042384   0.004316  -0.002896
     4  C   -0.000105  -0.055684  -0.002245  -0.001441
     5  C   -0.000002  -0.001011  -0.000436   0.000280
     6  H   -0.000000   0.000669  -0.000466  -0.000003
     7  H    0.000000  -0.000108  -0.000040  -0.000004
     8  H    0.000000   0.000075   0.000058   0.000005
     9  C    0.000007  -0.004455   0.000648   0.001236
    10  H   -0.000000  -0.000120   0.000001  -0.000038
    11  C   -0.000002   0.000509  -0.000030   0.000051
    12  H    0.000025  -0.000554  -0.000004   0.000016
    13  H   -0.000000   0.000149  -0.000000  -0.000081
    14  H   -0.000000  -0.000037  -0.000000   0.000025
    15  C   -0.006998   0.003136   0.000050  -0.000091
    16  H    0.000188  -0.000128   0.000006   0.000009
    17  H    0.000180  -0.000071  -0.000004  -0.000002
    18  H    0.002368   0.000144   0.000007  -0.000009
    19  C   -0.038332  -0.049354   0.000417   0.001446
    20  C    0.003541  -0.007949  -0.002567   0.000178
    21  H   -0.000122   0.000348  -0.000063  -0.000014
    22  H    0.000051  -0.002567  -0.001998   0.000062
    23  H   -0.000120   0.000140   0.000086   0.000024
    24  C    0.403960   0.340992  -0.044503  -0.041006
    25  H    0.558056  -0.040061   0.003267  -0.003353
    26  C   -0.040061   4.977839   0.416251   0.413228
    27  H    0.003267   0.416251   0.582598  -0.028540
    28  H   -0.003353   0.413228  -0.028540   0.579538
 Mulliken charges:
               1
     1  C   -0.235696
     2  H    0.118365
     3  H    0.121814
     4  C    0.017883
     5  C   -0.340845
     6  H    0.111985
     7  H    0.118112
     8  H    0.118156
     9  C   -0.153908
    10  H    0.115552
    11  C   -0.353585
    12  H    0.115581
    13  H    0.120162
    14  H    0.120250
    15  C   -0.342746
    16  H    0.116299
    17  H    0.115688
    18  H    0.119226
    19  C    0.027041
    20  C   -0.348771
    21  H    0.119572
    22  H    0.118676
    23  H    0.120971
    24  C   -0.163245
    25  H    0.116321
    26  C   -0.234395
    27  H    0.118132
    28  H    0.123405
 Sum of Mulliken charges =  -0.00000
 Mulliken charges with hydrogens summed into heavy atoms:
               1
     1  C    0.004483
     4  C    0.017883
     5  C    0.007409
     9  C   -0.038356
    11  C    0.002408
    15  C    0.008468
    19  C    0.027041
    20  C    0.010448
    24  C   -0.046924
    26  C    0.007142
 Electronic spatial extent (au):  <R**2>=           2498.6156
 Charge=             -0.0000 electrons
 Dipole moment (field-independent basis, Debye):
    X=              0.3626    Y=              0.1699    Z=              0.0498  Tot=              0.4035
 Quadrupole moment (field-independent basis, Debye-Ang):
   XX=            -63.7582   YY=            -63.7112   ZZ=            -67.3994
   XY=              1.0617   XZ=              1.2177   YZ=             -0.3674
 Traceless Quadrupole moment (field-independent basis, Debye-Ang):
   XX=              1.1981   YY=              1.2451   ZZ=             -2.4431
   XY=              1.0617   XZ=              1.2177   YZ=             -0.3674
 Octapole moment (field-independent basis, Debye-Ang**2):
  XXX=              2.8323  YYY=             -2.8562  ZZZ=              0.8775  XYY=             -0.7382
  XXY=              1.7309  XXZ=             -2.8066  XZZ=              1.5462  YZZ=              1.4376
  YYZ=              0.7861  XYZ=             -0.4940
 Hexadecapole moment (field-independent basis, Debye-Ang**3):
 XXXX=          -2633.5327 YYYY=           -638.9545 ZZZZ=           -166.0438 XXXY=             10.5034
 XXXZ=             13.5605 YYYX=             -7.0823 YYYZ=             -1.6738 ZZZX=              4.0400
 ZZZY=              2.3776 XXYY=           -550.6717 XXZZ=           -483.2674 YYZZ=           -131.1157
 XXYZ=             -4.5757 YYXZ=              2.5312 ZZXY=              7.7340
 N-N= 5.156965418006D+02 E-N=-1.936106449500D+03  KE= 3.887456768357D+02
 No NMR shielding tensors so no spin-rotation constants.
 Leave Link  601 at Fri Sep 17 16:57:34 2021, MaxMem=   524288000 cpu:               0.2 elap:               0.4
 (Enter /opt/gaussian/g16_legacy/l9999.exe)
 1\1\GINC-TRUENO95\FOpt\RMP2-FC\6-31G(d,p)\C10H18\JRAMOS\17-Sep-2021\0\
 \#p opt mp2/6-31g(d,p)\\Conformer number 523. Energy MM = 23.287 kcal/
 mol\\0,1\C,-0.6680823131,0.5862178312,0.4209314577\H,0.0111456155,1.42
 46997105,0.2436923771\H,-0.7774199594,0.5052069703,1.5037896666\C,-1.9
 917587533,0.8629791503,-0.2462130017\C,-1.9143560328,1.6458743312,-1.5
 290117017\H,-1.2441395743,1.1627554946,-2.2436562157\H,-2.8926867809,1
 .7446057305,-1.997654023\H,-1.5175090069,2.6473704576,-1.349068804\C,-
 3.1719374687,0.4128209369,0.2188768513\H,-4.0626556303,0.6491320381,-0
 .3567811198\C,-3.4050486684,-0.393218523,1.4604408533\H,-2.482058274,-
 0.6119097601,1.9922691704\H,-3.8811560158,-1.3449428968,1.2175948575\H
 ,-4.073779208,0.1306276627,2.1460227146\C,3.7870494772,-0.9438361917,0
 .8283229029\H,4.4474426386,-1.6163831646,0.2761893764\H,4.352783364,-0
 .0284440912,1.0159087719\H,3.5548652111,-1.4046943936,1.7871972547\C,2
 .5405429227,-0.6516165094,0.0393587177\C,2.7810126588,-0.017789324,-1.
 3027626174\H,3.3478741041,0.9081518997,-1.1847871535\H,1.8615282337,0.
 2183339894,-1.8322271126\H,3.3802577859,-0.676310601,-1.9354846846\C,1
 .3244922059,-0.9541051204,0.5317062954\H,1.2831259054,-1.3915874204,1.
 5261906018\C,-0.0045636533,-0.6974268224,-0.1140942761\H,0.0904381664,
 -0.6286742015,-1.1985428356\H,-0.6753069501,-1.5380371828,0.0816916764
 \\Version=EM64L-G16RevA.03\State=1-A\HF=-389.1568792\MP2=-390.573553\R
 MSD=2.369e-09\RMSF=3.813e-06\Dipole=0.109126,0.0144639,-0.0321077\PG=C
 01 [X(C10H18)]\\@


 IN SO FAR AS QUANTUM MECHANICS IS CORRECT, CHEMICAL 
 QUESTIONS ARE PROBLEMS IN APPLIED MATHEMATICS.

                    -- EYRING, WALTER, & KIMBALL, 1944
 Job cpu time:       0 days  0 hours 58 minutes  8.7 seconds.
 Elapsed time:       0 days  0 hours 58 minutes 11.9 seconds.
 File lengths (MBytes):  RWF=     32 Int=      0 D2E=      0 Chk=      7 Scr=      1
 Normal termination of Gaussian 16 at Fri Sep 17 16:57:34 2021.
