 Entering Gaussian System, Link 0=/opt/gaussian/g16_legacy/g16
 Input=01-IsoP_2188_gaussian.com
 Output=01-IsoP_2188_gaussian.log
 Initial command:
 /opt/gaussian/g16_legacy/l1.exe "/scratch-local/jramos/2661349/Gau-29912.inp" -scrdir="/scratch-local/jramos/2661349/"
 Entering Link 1 = /opt/gaussian/g16_legacy/l1.exe PID=     29945.
  
 Copyright (c) 1988,1990,1992,1993,1995,1998,2003,2009,2016,
            Gaussian, Inc.  All Rights Reserved.
  
 This is part of the Gaussian(R) 16 program.  It is based on
 the Gaussian(R) 09 system (copyright 2009, Gaussian, Inc.),
 the Gaussian(R) 03 system (copyright 2003, Gaussian, Inc.),
 the Gaussian(R) 98 system (copyright 1998, Gaussian, Inc.),
 the Gaussian(R) 94 system (copyright 1995, Gaussian, Inc.),
 the Gaussian 92(TM) system (copyright 1992, Gaussian, Inc.),
 the Gaussian 90(TM) system (copyright 1990, Gaussian, Inc.),
 the Gaussian 88(TM) system (copyright 1988, Gaussian, Inc.),
 the Gaussian 86(TM) system (copyright 1986, Carnegie Mellon
 University), and the Gaussian 82(TM) system (copyright 1983,
 Carnegie Mellon University). Gaussian is a federally registered
 trademark of Gaussian, Inc.
  
 This software contains proprietary and confidential information,
 including trade secrets, belonging to Gaussian, Inc.
  
 This software is provided under written license and may be
 used, copied, transmitted, or stored only in accord with that
 written license.
  
 The following legend is applicable only to US Government
 contracts under FAR:
  
                    RESTRICTED RIGHTS LEGEND
  
 Use, reproduction and disclosure by the US Government is
 subject to restrictions as set forth in subparagraphs (a)
 and (c) of the Commercial Computer Software - Restricted
 Rights clause in FAR 52.227-19.
  
 Gaussian, Inc.
 340 Quinnipiac St., Bldg. 40, Wallingford CT 06492
  
  
 ---------------------------------------------------------------
 Warning -- This program may not be used in any manner that
 competes with the business of Gaussian, Inc. or will provide
 assistance to any competitor of Gaussian, Inc.  The licensee
 of this program is prohibited from giving any competitor of
 Gaussian, Inc. access to this program.  By using this program,
 the user acknowledges that Gaussian, Inc. is engaged in the
 business of creating and licensing software in the field of
 computational chemistry and represents and warrants to the
 licensee that it is not a competitor of Gaussian, Inc. and that
 it will not use this program in any manner prohibited above.
 ---------------------------------------------------------------
  

 Cite this work as:
 Gaussian 16, Revision A.03,
 M. J. Frisch, G. W. Trucks, H. B. Schlegel, G. E. Scuseria, 
 M. A. Robb, J. R. Cheeseman, G. Scalmani, V. Barone, 
 G. A. Petersson, H. Nakatsuji, X. Li, M. Caricato, A. V. Marenich, 
 J. Bloino, B. G. Janesko, R. Gomperts, B. Mennucci, H. P. Hratchian, 
 J. V. Ortiz, A. F. Izmaylov, J. L. Sonnenberg, D. Williams-Young, 
 F. Ding, F. Lipparini, F. Egidi, J. Goings, B. Peng, A. Petrone, 
 T. Henderson, D. Ranasinghe, V. G. Zakrzewski, J. Gao, N. Rega, 
 G. Zheng, W. Liang, M. Hada, M. Ehara, K. Toyota, R. Fukuda, 
 J. Hasegawa, M. Ishida, T. Nakajima, Y. Honda, O. Kitao, H. Nakai, 
 T. Vreven, K. Throssell, J. A. Montgomery, Jr., J. E. Peralta, 
 F. Ogliaro, M. J. Bearpark, J. J. Heyd, E. N. Brothers, K. N. Kudin, 
 V. N. Staroverov, T. A. Keith, R. Kobayashi, J. Normand, 
 K. Raghavachari, A. P. Rendell, J. C. Burant, S. S. Iyengar, 
 J. Tomasi, M. Cossi, J. M. Millam, M. Klene, C. Adamo, R. Cammi, 
 J. W. Ochterski, R. L. Martin, K. Morokuma, O. Farkas, 
 J. B. Foresman, and D. J. Fox, Gaussian, Inc., Wallingford CT, 2016.
 
 ******************************************
 Gaussian 16:  EM64L-G16RevA.03 25-Dec-2016
                17-Sep-2021 
 ******************************************
 %chk=01-IsoP_2188_gaussian.chk
 %nproc=1
 Will use up to    1 processors via shared memory.
 %mem=4000Mb
 ---------------------
 #p opt mp2/6-31g(d,p)
 ---------------------
 1/18=20,19=15,38=1/1,3;
 2/9=110,12=2,17=6,18=5,40=1/2;
 3/5=1,6=6,7=101,11=9,25=1,30=1,71=1/1,2,3;
 4//1;
 5/5=2,38=5/2;
 8/6=4,10=2/1;
 9/15=2,16=-3/6;
 10/5=1/2;
 6/7=2,8=2,9=2,10=2/1;
 7/12=2/1,2,3,16;
 1/18=20,19=15/3(2);
 2/9=110/2;
 99//99;
 2/9=110/2;
 3/5=1,6=6,7=101,11=9,25=1,30=1,71=1/1,2,3;
 4/5=5,16=3,69=1/1;
 5/5=2,38=5/2;
 8/6=4,10=2/1;
 9/15=2,16=-3/6;
 10/5=1/2;
 7/12=2/1,2,3,16;
 1/18=20,19=15/3(-8);
 2/9=110/2;
 6/7=2,8=2,9=2,10=2/1;
 99//99;
 Leave Link    1 at Fri Sep 17 13:32:38 2021, MaxMem=   524288000 cpu:               0.0 elap:               0.1
 (Enter /opt/gaussian/g16_legacy/l101.exe)
 --------------------------------------------------
 Conformer number 2188. Energy MM = 23.287 kcal/mol
 --------------------------------------------------
 Symbolic Z-matrix:
 Charge =  0 Multiplicity = 1
 C                     0.4521    0.1948   -0.8136 
 H                    -0.2623    0.9966   -1.0442 
 H                     0.3012   -0.5515   -1.6027 
 C                     1.8576    0.7568   -0.8713 
 C                     2.0021    2.1655   -0.3544 
 H                     3.0322    2.5301   -0.4264 
 H                     1.7056    2.2199    0.6978 
 H                     1.3688    2.848    -0.9306 
 C                     2.9239    0.095    -1.3627 
 H                     3.8888    0.6011   -1.3793 
 C                     2.9644   -1.3043   -1.8901 
 H                     3.7659   -1.8587   -1.3913 
 H                     2.0368   -1.8577   -1.7278 
 H                     3.1767   -1.2909   -2.9634 
 C                    -3.6767   -1.1935    1.1215 
 H                    -4.4298   -0.5962    0.5971 
 H                    -4.0311   -1.3854    2.1397 
 H                    -3.6016   -2.1583    0.6088 
 C                    -2.361    -0.4606    1.1579 
 C                    -2.4121    0.8676    1.8613 
 H                    -3.2183    1.482     1.446 
 H                    -1.4912    1.4468    1.7622 
 H                    -2.606     0.7209    2.9288 
 C                    -1.2638   -0.9902    0.5825 
 H                    -1.3534   -1.9555    0.0839 
 C                     0.1275   -0.4156    0.5536 
 H                     0.8316   -1.2283    0.7745 
 H                     0.2722    0.3218    1.3494 
 
 ITRead=  0  0  0  0  0  0  0  0  0  0  0  0  0  0  0  0  0  0  0  0
 ITRead=  0  0  0  0  0  0  0  0
 MicOpt= -1 -1 -1 -1 -1 -1 -1 -1 -1 -1 -1 -1 -1 -1 -1 -1 -1 -1 -1 -1
 MicOpt= -1 -1 -1 -1 -1 -1 -1 -1
 NAtoms=     28 NQM=       28 NQMF=       0 NMMI=      0 NMMIF=      0
                NMic=       0 NMicF=      0.
                    Isotopes and Nuclear Properties:
 (Nuclear quadrupole moments (NQMom) in fm**2, nuclear magnetic moments (NMagM)
  in nuclear magnetons)

  Atom         1           2           3           4           5           6           7           8           9          10
 IAtWgt=          12           1           1          12          12           1           1           1          12           1
 AtmWgt=  12.0000000   1.0078250   1.0078250  12.0000000  12.0000000   1.0078250   1.0078250   1.0078250  12.0000000   1.0078250
 NucSpn=           0           1           1           0           0           1           1           1           0           1
 AtZEff=  -0.0000000  -0.0000000  -0.0000000  -0.0000000  -0.0000000  -0.0000000  -0.0000000  -0.0000000  -0.0000000  -0.0000000
 NQMom=    0.0000000   0.0000000   0.0000000   0.0000000   0.0000000   0.0000000   0.0000000   0.0000000   0.0000000   0.0000000
 NMagM=    0.0000000   2.7928460   2.7928460   0.0000000   0.0000000   2.7928460   2.7928460   2.7928460   0.0000000   2.7928460
 AtZNuc=   6.0000000   1.0000000   1.0000000   6.0000000   6.0000000   1.0000000   1.0000000   1.0000000   6.0000000   1.0000000

  Atom        11          12          13          14          15          16          17          18          19          20
 IAtWgt=          12           1           1           1          12           1           1           1          12          12
 AtmWgt=  12.0000000   1.0078250   1.0078250   1.0078250  12.0000000   1.0078250   1.0078250   1.0078250  12.0000000  12.0000000
 NucSpn=           0           1           1           1           0           1           1           1           0           0
 AtZEff=  -0.0000000  -0.0000000  -0.0000000  -0.0000000  -0.0000000  -0.0000000  -0.0000000  -0.0000000  -0.0000000  -0.0000000
 NQMom=    0.0000000   0.0000000   0.0000000   0.0000000   0.0000000   0.0000000   0.0000000   0.0000000   0.0000000   0.0000000
 NMagM=    0.0000000   2.7928460   2.7928460   2.7928460   0.0000000   2.7928460   2.7928460   2.7928460   0.0000000   0.0000000
 AtZNuc=   6.0000000   1.0000000   1.0000000   1.0000000   6.0000000   1.0000000   1.0000000   1.0000000   6.0000000   6.0000000

  Atom        21          22          23          24          25          26          27          28
 IAtWgt=           1           1           1          12           1          12           1           1
 AtmWgt=   1.0078250   1.0078250   1.0078250  12.0000000   1.0078250  12.0000000   1.0078250   1.0078250
 NucSpn=           1           1           1           0           1           0           1           1
 AtZEff=  -0.0000000  -0.0000000  -0.0000000  -0.0000000  -0.0000000  -0.0000000  -0.0000000  -0.0000000
 NQMom=    0.0000000   0.0000000   0.0000000   0.0000000   0.0000000   0.0000000   0.0000000   0.0000000
 NMagM=    2.7928460   2.7928460   2.7928460   0.0000000   2.7928460   0.0000000   2.7928460   2.7928460
 AtZNuc=   1.0000000   1.0000000   1.0000000   6.0000000   1.0000000   6.0000000   1.0000000   1.0000000
 Leave Link  101 at Fri Sep 17 13:32:38 2021, MaxMem=   524288000 cpu:               0.3 elap:               0.3
 (Enter /opt/gaussian/g16_legacy/l103.exe)

 GradGradGradGradGradGradGradGradGradGradGradGradGradGradGradGradGradGrad
 Berny optimization.
 Initialization pass.
                           ----------------------------
                           !    Initial Parameters    !
                           ! (Angstroms and Degrees)  !
 --------------------------                            --------------------------
 ! Name  Definition              Value          Derivative Info.                !
 --------------------------------------------------------------------------------
 ! R1    R(1,2)                  1.0984         estimate D2E/DX2                !
 ! R2    R(1,3)                  1.0965         estimate D2E/DX2                !
 ! R3    R(1,4)                  1.5148         estimate D2E/DX2                !
 ! R4    R(1,26)                 1.5321         estimate D2E/DX2                !
 ! R5    R(4,5)                  1.5075         estimate D2E/DX2                !
 ! R6    R(4,9)                  1.3478         estimate D2E/DX2                !
 ! R7    R(5,6)                  1.0951         estimate D2E/DX2                !
 ! R8    R(5,7)                  1.0945         estimate D2E/DX2                !
 ! R9    R(5,8)                  1.0949         estimate D2E/DX2                !
 ! R10   R(9,10)                 1.0897         estimate D2E/DX2                !
 ! R11   R(9,11)                 1.4959         estimate D2E/DX2                !
 ! R12   R(11,12)                1.0948         estimate D2E/DX2                !
 ! R13   R(11,13)                1.0923         estimate D2E/DX2                !
 ! R14   R(11,14)                1.0942         estimate D2E/DX2                !
 ! R15   R(15,16)                1.095          estimate D2E/DX2                !
 ! R16   R(15,17)                1.0951         estimate D2E/DX2                !
 ! R17   R(15,18)                1.0951         estimate D2E/DX2                !
 ! R18   R(15,19)                1.5065         estimate D2E/DX2                !
 ! R19   R(19,20)                1.5038         estimate D2E/DX2                !
 ! R20   R(19,24)                1.3474         estimate D2E/DX2                !
 ! R21   R(20,21)                1.0954         estimate D2E/DX2                !
 ! R22   R(20,22)                1.0924         estimate D2E/DX2                !
 ! R23   R(20,23)                1.0948         estimate D2E/DX2                !
 ! R24   R(24,25)                1.0902         estimate D2E/DX2                !
 ! R25   R(24,26)                1.5056         estimate D2E/DX2                !
 ! R26   R(26,27)                1.0977         estimate D2E/DX2                !
 ! R27   R(26,28)                1.0945         estimate D2E/DX2                !
 ! A1    A(2,1,3)              104.8468         estimate D2E/DX2                !
 ! A2    A(2,1,4)              108.9449         estimate D2E/DX2                !
 ! A3    A(2,1,26)             109.9007         estimate D2E/DX2                !
 ! A4    A(3,1,4)              110.6573         estimate D2E/DX2                !
 ! A5    A(3,1,26)             109.991          estimate D2E/DX2                !
 ! A6    A(4,1,26)             112.2343         estimate D2E/DX2                !
 ! A7    A(1,4,5)              114.9972         estimate D2E/DX2                !
 ! A8    A(1,4,9)              124.4573         estimate D2E/DX2                !
 ! A9    A(5,4,9)              120.5336         estimate D2E/DX2                !
 ! A10   A(4,5,6)              112.256          estimate D2E/DX2                !
 ! A11   A(4,5,7)              110.4939         estimate D2E/DX2                !
 ! A12   A(4,5,8)              110.2792         estimate D2E/DX2                !
 ! A13   A(6,5,7)              107.5461         estimate D2E/DX2                !
 ! A14   A(6,5,8)              107.5739         estimate D2E/DX2                !
 ! A15   A(7,5,8)              108.5558         estimate D2E/DX2                !
 ! A16   A(4,9,10)             118.5583         estimate D2E/DX2                !
 ! A17   A(4,9,11)             127.5374         estimate D2E/DX2                !
 ! A18   A(10,9,11)            113.897          estimate D2E/DX2                !
 ! A19   A(9,11,12)            109.4435         estimate D2E/DX2                !
 ! A20   A(9,11,13)            113.4874         estimate D2E/DX2                !
 ! A21   A(9,11,14)            109.854          estimate D2E/DX2                !
 ! A22   A(12,11,13)           107.3056         estimate D2E/DX2                !
 ! A23   A(12,11,14)           108.1239         estimate D2E/DX2                !
 ! A24   A(13,11,14)           108.4657         estimate D2E/DX2                !
 ! A25   A(16,15,17)           108.5608         estimate D2E/DX2                !
 ! A26   A(16,15,18)           107.6698         estimate D2E/DX2                !
 ! A27   A(16,15,19)           110.2961         estimate D2E/DX2                !
 ! A28   A(17,15,18)           107.6444         estimate D2E/DX2                !
 ! A29   A(17,15,19)           110.2083         estimate D2E/DX2                !
 ! A30   A(18,15,19)           112.3344         estimate D2E/DX2                !
 ! A31   A(15,19,20)           114.2866         estimate D2E/DX2                !
 ! A32   A(15,19,24)           120.6407         estimate D2E/DX2                !
 ! A33   A(20,19,24)           125.0701         estimate D2E/DX2                !
 ! A34   A(19,20,21)           110.0633         estimate D2E/DX2                !
 ! A35   A(19,20,22)           113.4037         estimate D2E/DX2                !
 ! A36   A(19,20,23)           110.1045         estimate D2E/DX2                !
 ! A37   A(21,20,22)           106.7774         estimate D2E/DX2                !
 ! A38   A(21,20,23)           108.3288         estimate D2E/DX2                !
 ! A39   A(22,20,23)           107.9866         estimate D2E/DX2                !
 ! A40   A(19,24,25)           118.4529         estimate D2E/DX2                !
 ! A41   A(19,24,26)           127.6408         estimate D2E/DX2                !
 ! A42   A(25,24,26)           113.8983         estimate D2E/DX2                !
 ! A43   A(1,26,24)            111.4064         estimate D2E/DX2                !
 ! A44   A(1,26,27)            109.7945         estimate D2E/DX2                !
 ! A45   A(1,26,28)            110.6345         estimate D2E/DX2                !
 ! A46   A(24,26,27)           107.8373         estimate D2E/DX2                !
 ! A47   A(24,26,28)           111.4283         estimate D2E/DX2                !
 ! A48   A(27,26,28)           105.5257         estimate D2E/DX2                !
 ! D1    D(2,1,4,5)             36.9562         estimate D2E/DX2                !
 ! D2    D(2,1,4,9)           -141.7911         estimate D2E/DX2                !
 ! D3    D(3,1,4,5)            151.7236         estimate D2E/DX2                !
 ! D4    D(3,1,4,9)            -27.0236         estimate D2E/DX2                !
 ! D5    D(26,1,4,5)           -84.9894         estimate D2E/DX2                !
 ! D6    D(26,1,4,9)            96.2633         estimate D2E/DX2                !
 ! D7    D(2,1,26,24)           59.6252         estimate D2E/DX2                !
 ! D8    D(2,1,26,27)          179.0163         estimate D2E/DX2                !
 ! D9    D(2,1,26,28)          -64.9111         estimate D2E/DX2                !
 ! D10   D(3,1,26,24)          -55.3152         estimate D2E/DX2                !
 ! D11   D(3,1,26,27)           64.0758         estimate D2E/DX2                !
 ! D12   D(3,1,26,28)         -179.8515         estimate D2E/DX2                !
 ! D13   D(4,1,26,24)         -178.9755         estimate D2E/DX2                !
 ! D14   D(4,1,26,27)          -59.5844         estimate D2E/DX2                !
 ! D15   D(4,1,26,28)           56.4883         estimate D2E/DX2                !
 ! D16   D(1,4,5,6)           -179.4083         estimate D2E/DX2                !
 ! D17   D(1,4,5,7)             60.5449         estimate D2E/DX2                !
 ! D18   D(1,4,5,8)            -59.4738         estimate D2E/DX2                !
 ! D19   D(9,4,5,6)             -0.6076         estimate D2E/DX2                !
 ! D20   D(9,4,5,7)           -120.6543         estimate D2E/DX2                !
 ! D21   D(9,4,5,8)            119.3269         estimate D2E/DX2                !
 ! D22   D(1,4,9,10)           178.5605         estimate D2E/DX2                !
 ! D23   D(1,4,9,11)            -2.4818         estimate D2E/DX2                !
 ! D24   D(5,4,9,10)            -0.1213         estimate D2E/DX2                !
 ! D25   D(5,4,9,11)           178.8364         estimate D2E/DX2                !
 ! D26   D(4,9,11,12)         -127.8633         estimate D2E/DX2                !
 ! D27   D(4,9,11,13)           -8.038          estimate D2E/DX2                !
 ! D28   D(4,9,11,14)          113.5687         estimate D2E/DX2                !
 ! D29   D(10,9,11,12)          51.1355         estimate D2E/DX2                !
 ! D30   D(10,9,11,13)         170.9607         estimate D2E/DX2                !
 ! D31   D(10,9,11,14)         -67.4325         estimate D2E/DX2                !
 ! D32   D(16,15,19,20)         60.2805         estimate D2E/DX2                !
 ! D33   D(16,15,19,24)       -119.1601         estimate D2E/DX2                !
 ! D34   D(17,15,19,20)        -59.5726         estimate D2E/DX2                !
 ! D35   D(17,15,19,24)        120.9869         estimate D2E/DX2                !
 ! D36   D(18,15,19,20)       -179.5997         estimate D2E/DX2                !
 ! D37   D(18,15,19,24)          0.9598         estimate D2E/DX2                !
 ! D38   D(15,19,20,21)        -52.5884         estimate D2E/DX2                !
 ! D39   D(15,19,20,22)       -172.1215         estimate D2E/DX2                !
 ! D40   D(15,19,20,23)         66.7649         estimate D2E/DX2                !
 ! D41   D(24,19,20,21)        126.8235         estimate D2E/DX2                !
 ! D42   D(24,19,20,22)          7.2904         estimate D2E/DX2                !
 ! D43   D(24,19,20,23)       -113.8231         estimate D2E/DX2                !
 ! D44   D(15,19,24,25)          0.5164         estimate D2E/DX2                !
 ! D45   D(15,19,24,26)       -178.3878         estimate D2E/DX2                !
 ! D46   D(20,19,24,25)       -178.8606         estimate D2E/DX2                !
 ! D47   D(20,19,24,26)          2.2352         estimate D2E/DX2                !
 ! D48   D(19,24,26,1)        -103.6625         estimate D2E/DX2                !
 ! D49   D(19,24,26,27)        135.7899         estimate D2E/DX2                !
 ! D50   D(19,24,26,28)         20.4266         estimate D2E/DX2                !
 ! D51   D(25,24,26,1)          77.3913         estimate D2E/DX2                !
 ! D52   D(25,24,26,27)        -43.1563         estimate D2E/DX2                !
 ! D53   D(25,24,26,28)       -158.5197         estimate D2E/DX2                !
 --------------------------------------------------------------------------------
 Trust Radius=3.00D-01 FncErr=1.00D-07 GrdErr=1.00D-07 EigMax=2.50D+02 EigMin=1.00D-04
 Number of steps in this run=    138 maximum allowed number of steps=    168.
 GradGradGradGradGradGradGradGradGradGradGradGradGradGradGradGradGradGrad

 Leave Link  103 at Fri Sep 17 13:32:38 2021, MaxMem=   524288000 cpu:               0.0 elap:               0.0
 (Enter /opt/gaussian/g16_legacy/l202.exe)
                          Input orientation:                          
 ---------------------------------------------------------------------
 Center     Atomic      Atomic             Coordinates (Angstroms)
 Number     Number       Type             X           Y           Z
 ---------------------------------------------------------------------
      1          6           0        0.452100    0.194800   -0.813600
      2          1           0       -0.262300    0.996600   -1.044200
      3          1           0        0.301200   -0.551500   -1.602700
      4          6           0        1.857600    0.756800   -0.871300
      5          6           0        2.002100    2.165500   -0.354400
      6          1           0        3.032200    2.530100   -0.426400
      7          1           0        1.705600    2.219900    0.697800
      8          1           0        1.368800    2.848000   -0.930600
      9          6           0        2.923900    0.095000   -1.362700
     10          1           0        3.888800    0.601100   -1.379300
     11          6           0        2.964400   -1.304300   -1.890100
     12          1           0        3.765900   -1.858700   -1.391300
     13          1           0        2.036800   -1.857700   -1.727800
     14          1           0        3.176700   -1.290900   -2.963400
     15          6           0       -3.676700   -1.193500    1.121500
     16          1           0       -4.429800   -0.596200    0.597100
     17          1           0       -4.031100   -1.385400    2.139700
     18          1           0       -3.601600   -2.158300    0.608800
     19          6           0       -2.361000   -0.460600    1.157900
     20          6           0       -2.412100    0.867600    1.861300
     21          1           0       -3.218300    1.482000    1.446000
     22          1           0       -1.491200    1.446800    1.762200
     23          1           0       -2.606000    0.720900    2.928800
     24          6           0       -1.263800   -0.990200    0.582500
     25          1           0       -1.353400   -1.955500    0.083900
     26          6           0        0.127500   -0.415600    0.553600
     27          1           0        0.831600   -1.228300    0.774500
     28          1           0        0.272200    0.321800    1.349400
 ---------------------------------------------------------------------
                    Distance matrix (angstroms):
                    1          2          3          4          5
     1  C    0.000000
     2  H    1.098375   0.000000
     3  H    1.096546   1.739560   0.000000
     4  C    1.514795   2.140415   2.160781   0.000000
     5  C    2.548926   2.640011   3.439971   1.507482   0.000000
     6  H    3.501495   3.686059   4.282324   2.173066   1.095090
     7  H    2.820749   2.898906   3.865915   2.150777   1.094530
     8  H    2.809537   2.470035   3.626029   2.148385   1.094935
     9  C    2.534022   3.326589   2.711848   1.347757   2.480596
    10  H    3.506566   4.183341   3.774820   2.099543   2.656578
    11  C    3.117339   4.052318   2.782434   2.551684   3.914576
    12  H    3.941049   4.949708   3.709125   3.279154   4.514459
    13  H    2.749508   3.728297   2.175802   2.757048   4.251302
    14  H    3.775234   4.554416   3.265994   3.210916   4.487011
    15  C    4.766443   4.598361   4.863858   6.197048   6.760912
    16  H    5.142830   4.753834   5.217612   6.596833   7.064112
    17  H    5.596257   5.478594   5.785306   6.952117   7.431617
    18  H    4.898243   4.882287   4.764912   6.363283   7.143140
    19  C    3.497126   3.373013   3.836207   4.836972   5.312259
    20  C    3.976354   3.616657   4.623325   5.070475   5.106763
    21  H    4.498279   3.895465   5.081001   5.626771   5.564278
    22  H    3.461021   3.096572   4.304469   4.315772   4.147249
    23  H    4.861514   4.621003   5.532206   5.862233   5.839594
    24  C    2.509509   2.756180   2.723377   3.861176   4.637060
    25  H    2.947732   3.343352   2.748370   4.310394   5.332366
    26  C    1.532054   2.167768   2.167549   2.529448   3.316725
    27  H    2.165940   3.074812   2.527936   2.775240   3.763292
    28  H    2.174181   2.543691   3.078699   2.763010   3.048724
                    6          7          8          9         10
     6  H    0.000000
     7  H    1.766329   0.000000
     8  H    1.766968   1.777535   0.000000
     9  C    2.611149   3.200799   3.191247   0.000000
    10  H    2.315777   3.420705   3.405920   1.089699   0.000000
    11  C    4.104831   4.549922   4.550624   1.495938   2.178527
    12  H    4.553121   5.024356   5.302015   2.127610   2.462898
    13  H    4.683722   4.756054   4.819270   2.175611   3.097911
    14  H    4.588822   5.281500   4.952905   2.132338   2.568292
    15  C    7.827549   6.387486   6.782471   7.169338   8.167703
    16  H    8.154922   6.751570   6.915211   7.641693   8.633585
    17  H    8.473855   6.927264   7.517136   7.926564   8.891252
    18  H    8.189019   6.880620   7.220642   7.179577   8.226355
    19  C    6.367174   4.892240   5.405560   5.881521   6.828220
    20  C    6.134972   4.487527   5.100186   6.282037   7.090406
    21  H    6.608566   5.034788   5.343751   6.894867   7.698648
    22  H    5.140492   3.456901   4.170627   5.575435   6.287180
    23  H    6.805870   5.080773   5.934523   7.027696   7.794646
    24  C    5.644998   4.374400   4.894061   4.743237   5.738483
    25  H    6.294005   5.212324   5.613661   4.959082   6.013137
    26  C    4.251450   3.075232   3.794043   3.428231   4.349386
    27  H    4.517784   3.558067   4.451087   3.270545   4.163176
    28  H    3.955712   2.466171   3.575279   3.799794   4.539120
                   11         12         13         14         15
    11  C    0.000000
    12  H    1.094789   0.000000
    13  H    1.092261   1.761539   0.000000
    14  H    1.094177   1.772301   1.774075   0.000000
    15  C    7.292888   7.883461   6.419015   7.979034   0.000000
    16  H    7.833375   8.527435   6.986663   8.427254   1.094953
    17  H    8.073592   8.572350   7.211105   8.831927   1.095060
    18  H    7.077159   7.640040   6.110779   7.710924   1.095144
    19  C    6.193708   6.781741   5.442407   6.952743   1.506497
    20  C    6.906295   7.495319   6.332583   7.692304   2.528765
    21  H    7.557699   8.245580   6.988754   8.247897   2.733813
    22  H    6.384373   6.964768   5.962097   7.184399   3.486845
    23  H    7.638887   8.119034   7.063193   8.497351   2.842122
    24  C    4.908165   5.472482   4.121165   5.690507   2.480713
    25  H    4.792091   5.328491   3.845163   5.499958   2.656121
    26  C    3.848306   4.370713   3.306035   4.736355   3.924229
    27  H    3.413899   3.701109   2.847834   4.413084   4.521768
    28  H    4.515141   4.946914   4.163315   5.444003   4.235786
                   16         17         18         19         20
    16  H    0.000000
    17  H    1.778036   0.000000
    18  H    1.768109   1.767908   0.000000
    19  C    2.147747   2.146723   2.173197   0.000000
    20  C    2.795000   2.788311   3.484213   1.503828   0.000000
    21  H    2.550937   3.060040   3.754944   2.142816   1.095409
    22  H    3.763865   3.822951   4.333690   2.181721   1.092406
    23  H    3.240035   2.662722   3.829283   2.142908   1.094840
    24  C    3.190455   3.199844   2.613515   1.347371   2.530878
    25  H    3.402250   3.423654   2.317553   2.098442   3.499984
    26  C    4.561085   4.555236   4.116581   2.561218   3.131493
    27  H    5.302202   5.053148   4.532728   3.305912   4.011922
    28  H    4.849483   4.696541   4.658939   2.753646   2.786648
                   21         22         23         24         25
    21  H    0.000000
    22  H    1.756159   0.000000
    23  H    1.775635   1.769369   0.000000
    24  C    3.267641   2.717052   3.199139   0.000000
    25  H    4.141204   3.796225   4.101900   1.090153   0.000000
    26  C    3.948625   2.747624   3.795422   1.505562   2.187459
    27  H    4.919180   3.677922   4.500831   2.117606   2.404157
    28  H    3.679536   2.132043   3.307238   2.160735   3.070857
                   26         27         28
    26  C    0.000000
    27  H    1.097741   0.000000
    28  H    1.094529   1.745351   0.000000
 Stoichiometry    C10H18
 Framework group  C1[X(C10H18)]
 Deg. of freedom    78
 Full point group                 C1      NOp   1
 Largest Abelian subgroup         C1      NOp   1
 Largest concise Abelian subgroup C1      NOp   1
                         Standard orientation:                         
 ---------------------------------------------------------------------
 Center     Atomic      Atomic             Coordinates (Angstroms)
 Number     Number       Type             X           Y           Z
 ---------------------------------------------------------------------
      1          6           0       -0.745834   -0.045461    0.580337
      2          1           0       -0.286495    0.606572    1.335510
      3          1           0       -0.871449   -1.012058    1.082657
      4          6           0       -2.090171    0.530332    0.185591
      5          6           0       -2.144055    2.035421    0.119978
      6          1           0       -3.137170    2.403133   -0.158827
      7          1           0       -1.432502    2.412390   -0.621361
      8          1           0       -1.893313    2.466985    1.094536
      9          6           0       -3.189348   -0.206029   -0.071372
     10          1           0       -4.114841    0.310417   -0.324731
     11          6           0       -3.306976   -1.697331   -0.075165
     12          1           0       -3.755115   -2.025147   -1.018707
     13          1           0       -2.347604   -2.209926    0.024264
     14          1           0       -3.959021   -2.020744    0.741820
     15          6           0        3.933017   -0.920050    0.330490
     16          1           0        4.322303   -0.557741    1.287627
     17          1           0        4.707449   -0.789543   -0.432647
     18          1           0        3.745671   -1.994170    0.433006
     19          6           0        2.691930   -0.156359   -0.051624
     20          6           0        2.901880    1.323899   -0.213657
     21          1           0        3.383824    1.735132    0.679952
     22          1           0        1.972945    1.880943   -0.355545
     23          1           0        3.548720    1.520208   -1.074897
     24          6           0        1.515328   -0.793365   -0.210498
     25          1           0        1.481896   -1.870787   -0.047779
     26          6           0        0.194778   -0.197018   -0.619442
     27          1           0       -0.258347   -0.862943   -1.365267
     28          1           0        0.329751    0.763042   -1.127440
 ---------------------------------------------------------------------
 Rotational constants (GHZ):           2.4778433           0.5324375           0.4581639
 Leave Link  202 at Fri Sep 17 13:32:38 2021, MaxMem=   524288000 cpu:               0.0 elap:               0.0
 (Enter /opt/gaussian/g16_legacy/l301.exe)
 Standard basis: 6-31G(d,p) (6D, 7F)
 Ernie: Thresh=  0.10000D-02 Tol=  0.10000D-05 Strict=F.
 There are   240 symmetry adapted cartesian basis functions of A   symmetry.
 There are   240 symmetry adapted basis functions of A   symmetry.
   240 basis functions,   406 primitive gaussians,   240 cartesian basis functions
    39 alpha electrons       39 beta electrons
       nuclear repulsion energy       513.2775833547 Hartrees.
 IExCor=    0 DFT=F Ex=HF Corr=None ExCW=0 ScaHFX=  1.000000
 ScaDFX=  1.000000  1.000000  1.000000  1.000000 ScalE2=  1.000000  1.000000
 IRadAn=      5 IRanWt=     -1 IRanGd=            0 ICorTp=0 IEmpDi=  4
 NAtoms=   28 NActive=   28 NUniq=   28 SFac= 1.00D+00 NAtFMM=   60 NAOKFM=F Big=F
 Integral buffers will be    131072 words long.
 Raffenetti 1 integral format.
 Two-electron integral symmetry is turned on.
 Leave Link  301 at Fri Sep 17 13:32:39 2021, MaxMem=   524288000 cpu:               0.1 elap:               0.1
 (Enter /opt/gaussian/g16_legacy/l302.exe)
 NPDir=0 NMtPBC=     1 NCelOv=     1 NCel=       1 NClECP=     1 NCelD=      1
         NCelK=      1 NCelE2=     1 NClLst=     1 CellRange=     0.0.
 One-electron integrals computed using PRISM.
 One-electron integral symmetry used in STVInt
 NBasis=   240 RedAO= T EigKep=  2.09D-03  NBF=   240
 NBsUse=   240 1.00D-06 EigRej= -1.00D+00 NBFU=   240
 Leave Link  302 at Fri Sep 17 13:32:39 2021, MaxMem=   524288000 cpu:               0.3 elap:               0.3
 (Enter /opt/gaussian/g16_legacy/l303.exe)
 DipDrv:  MaxL=1.
 Leave Link  303 at Fri Sep 17 13:32:39 2021, MaxMem=   524288000 cpu:               0.1 elap:               0.1
 (Enter /opt/gaussian/g16_legacy/l401.exe)
 ExpMin= 1.61D-01 ExpMax= 3.05D+03 ExpMxC= 4.57D+02 IAcc=3 IRadAn=         5 AccDes= 0.00D+00
 Harris functional with IExCor=  205 and IRadAn=       5 diagonalized for initial guess.
 HarFok:  IExCor=  205 AccDes= 0.00D+00 IRadAn=         5 IDoV= 1 UseB2=F ITyADJ=14
 ICtDFT=  3500011 ScaDFX=  1.000000  1.000000  1.000000  1.000000
 FoFCou: FMM=F IPFlag=           0 FMFlag=      100000 FMFlg1=           0
         NFxFlg=           0 DoJE=T BraDBF=F KetDBF=T FulRan=T
         wScrn=  0.000000 ICntrl=       500 IOpCl=  0 I1Cent=   200000004 NGrid=           0
         NMat0=    1 NMatS0=      1 NMatT0=    0 NMatD0=    1 NMtDS0=    0 NMtDT0=    0
 Petite list used in FoFCou.
 Harris En= -390.110057907441    
 JPrj=0 DoOrth=F DoCkMO=F.
 Leave Link  401 at Fri Sep 17 13:32:50 2021, MaxMem=   524288000 cpu:              10.9 elap:              11.0
 (Enter /opt/gaussian/g16_legacy/l502.exe)
 Keep R1 ints in memory in canonical form, NReq=425198025.
 FoFCou: FMM=F IPFlag=           0 FMFlag=           0 FMFlg1=           0
         NFxFlg=           0 DoJE=F BraDBF=F KetDBF=F FulRan=T
         wScrn=  0.000000 ICntrl=       600 IOpCl=  0 I1Cent=           0 NGrid=           0
         NMat0=    1 NMatS0=  28920 NMatT0=    0 NMatD0=    1 NMtDS0=    0 NMtDT0=    0
 Symmetry not used in FoFCou.
 Two-electron integral symmetry not used.
 Closed shell SCF:
 Using DIIS extrapolation, IDIIS=  1040.
 NGot=   524288000 LenX=   105970886 LenY=   105912845
 Requested convergence on RMS density matrix=1.00D-08 within 128 cycles.
 Requested convergence on MAX density matrix=1.00D-06.
 Requested convergence on             energy=1.00D-06.
 No special actions if energy rises.

 Cycle   1  Pass 1  IDiag  1:
 E= -388.532787597229    
 DIIS: error= 5.02D-02 at cycle   1 NSaved=   1.
 NSaved= 1 IEnMin= 1 EnMin= -388.532787597229     IErMin= 1 ErrMin= 5.02D-02
 ErrMax= 5.02D-02  0.00D+00 EMaxC= 1.00D-01 BMatC= 8.07D-01 BMatP= 8.07D-01
 IDIUse=3 WtCom= 4.98D-01 WtEn= 5.02D-01
 Coeff-Com:  0.100D+01
 Coeff-En:   0.100D+01
 Coeff:      0.100D+01
 Gap=     0.508 Goal=   None    Shift=    0.000
 GapD=    0.508 DampG=2.000 DampE=0.500 DampFc=1.0000 IDamp=-1.
 RMSDP=3.99D-03 MaxDP=1.15D-01              OVMax= 1.39D-01

 Cycle   2  Pass 1  IDiag  1:
 E= -389.074237622838     Delta-E=       -0.541450025609 Rises=F Damp=F
 DIIS: error= 1.46D-02 at cycle   2 NSaved=   2.
 NSaved= 2 IEnMin= 2 EnMin= -389.074237622838     IErMin= 2 ErrMin= 1.46D-02
 ErrMax= 1.46D-02  0.00D+00 EMaxC= 1.00D-01 BMatC= 8.63D-02 BMatP= 8.07D-01
 IDIUse=3 WtCom= 8.54D-01 WtEn= 1.46D-01
 Coeff-Com:  0.183D+00 0.817D+00
 Coeff-En:   0.000D+00 0.100D+01
 Coeff:      0.156D+00 0.844D+00
 Gap=     0.552 Goal=   None    Shift=    0.000
 RMSDP=1.62D-03 MaxDP=3.04D-02 DE=-5.41D-01 OVMax= 4.55D-02

 Cycle   3  Pass 1  IDiag  1:
 E= -389.151655483340     Delta-E=       -0.077417860502 Rises=F Damp=F
 DIIS: error= 2.67D-03 at cycle   3 NSaved=   3.
 NSaved= 3 IEnMin= 3 EnMin= -389.151655483340     IErMin= 3 ErrMin= 2.67D-03
 ErrMax= 2.67D-03  0.00D+00 EMaxC= 1.00D-01 BMatC= 3.02D-03 BMatP= 8.63D-02
 IDIUse=3 WtCom= 9.73D-01 WtEn= 2.67D-02
 Coeff-Com: -0.245D-01 0.102D+00 0.922D+00
 Coeff-En:   0.000D+00 0.000D+00 0.100D+01
 Coeff:     -0.239D-01 0.997D-01 0.924D+00
 Gap=     0.499 Goal=   None    Shift=    0.000
 RMSDP=2.54D-04 MaxDP=6.76D-03 DE=-7.74D-02 OVMax= 9.70D-03

 Cycle   4  Pass 1  IDiag  1:
 E= -389.155149853367     Delta-E=       -0.003494370027 Rises=F Damp=F
 DIIS: error= 4.95D-04 at cycle   4 NSaved=   4.
 NSaved= 4 IEnMin= 4 EnMin= -389.155149853367     IErMin= 4 ErrMin= 4.95D-04
 ErrMax= 4.95D-04  0.00D+00 EMaxC= 1.00D-01 BMatC= 9.58D-05 BMatP= 3.02D-03
 IDIUse=3 WtCom= 9.95D-01 WtEn= 4.95D-03
 Coeff-Com: -0.442D-02-0.836D-03 0.102D+00 0.903D+00
 Coeff-En:   0.000D+00 0.000D+00 0.000D+00 0.100D+01
 Coeff:     -0.440D-02-0.832D-03 0.102D+00 0.903D+00
 Gap=     0.500 Goal=   None    Shift=    0.000
 RMSDP=7.33D-05 MaxDP=1.75D-03 DE=-3.49D-03 OVMax= 3.51D-03

 Cycle   5  Pass 1  IDiag  1:
 E= -389.155275083435     Delta-E=       -0.000125230068 Rises=F Damp=F
 DIIS: error= 1.73D-04 at cycle   5 NSaved=   5.
 NSaved= 5 IEnMin= 5 EnMin= -389.155275083435     IErMin= 5 ErrMin= 1.73D-04
 ErrMax= 1.73D-04  0.00D+00 EMaxC= 1.00D-01 BMatC= 1.79D-05 BMatP= 9.58D-05
 IDIUse=3 WtCom= 9.98D-01 WtEn= 1.73D-03
 Coeff-Com:  0.248D-02-0.154D-01-0.106D+00 0.196D+00 0.922D+00
 Coeff-En:   0.000D+00 0.000D+00 0.000D+00 0.000D+00 0.100D+01
 Coeff:      0.247D-02-0.153D-01-0.105D+00 0.196D+00 0.923D+00
 Gap=     0.500 Goal=   None    Shift=    0.000
 RMSDP=3.09D-05 MaxDP=7.45D-04 DE=-1.25D-04 OVMax= 1.02D-03

 Cycle   6  Pass 1  IDiag  1:
 E= -389.155298701416     Delta-E=       -0.000023617981 Rises=F Damp=F
 DIIS: error= 3.73D-05 at cycle   6 NSaved=   6.
 NSaved= 6 IEnMin= 6 EnMin= -389.155298701416     IErMin= 6 ErrMin= 3.73D-05
 ErrMax= 3.73D-05  0.00D+00 EMaxC= 1.00D-01 BMatC= 5.50D-07 BMatP= 1.79D-05
 IDIUse=1 WtCom= 1.00D+00 WtEn= 0.00D+00
 Coeff-Com:  0.724D-03-0.330D-02-0.263D-01-0.272D-02 0.163D+00 0.868D+00
 Coeff:      0.724D-03-0.330D-02-0.263D-01-0.272D-02 0.163D+00 0.868D+00
 Gap=     0.500 Goal=   None    Shift=    0.000
 RMSDP=5.42D-06 MaxDP=1.67D-04 DE=-2.36D-05 OVMax= 3.13D-04

 Cycle   7  Pass 1  IDiag  1:
 E= -389.155299554975     Delta-E=       -0.000000853559 Rises=F Damp=F
 DIIS: error= 9.13D-06 at cycle   7 NSaved=   7.
 NSaved= 7 IEnMin= 7 EnMin= -389.155299554975     IErMin= 7 ErrMin= 9.13D-06
 ErrMax= 9.13D-06  0.00D+00 EMaxC= 1.00D-01 BMatC= 4.92D-08 BMatP= 5.50D-07
 IDIUse=1 WtCom= 1.00D+00 WtEn= 0.00D+00
 Coeff-Com: -0.555D-04 0.479D-03 0.326D-02-0.106D-01-0.462D-01 0.126D+00
 Coeff-Com:  0.927D+00
 Coeff:     -0.555D-04 0.479D-03 0.326D-02-0.106D-01-0.462D-01 0.126D+00
 Coeff:      0.927D+00
 Gap=     0.500 Goal=   None    Shift=    0.000
 RMSDP=1.70D-06 MaxDP=4.71D-05 DE=-8.54D-07 OVMax= 8.68D-05

 Cycle   8  Pass 1  IDiag  1:
 E= -389.155299640185     Delta-E=       -0.000000085210 Rises=F Damp=F
 DIIS: error= 2.98D-06 at cycle   8 NSaved=   8.
 NSaved= 8 IEnMin= 8 EnMin= -389.155299640185     IErMin= 8 ErrMin= 2.98D-06
 ErrMax= 2.98D-06  0.00D+00 EMaxC= 1.00D-01 BMatC= 4.91D-09 BMatP= 4.92D-08
 IDIUse=1 WtCom= 1.00D+00 WtEn= 0.00D+00
 Coeff-Com: -0.553D-04 0.226D-03 0.195D-02 0.331D-02-0.143D-01-0.849D-01
 Coeff-Com: -0.129D+00 0.122D+01
 Coeff:     -0.553D-04 0.226D-03 0.195D-02 0.331D-02-0.143D-01-0.849D-01
 Coeff:     -0.129D+00 0.122D+01
 Gap=     0.500 Goal=   None    Shift=    0.000
 RMSDP=7.77D-07 MaxDP=2.59D-05 DE=-8.52D-08 OVMax= 5.60D-05

 Cycle   9  Pass 1  IDiag  1:
 E= -389.155299655496     Delta-E=       -0.000000015312 Rises=F Damp=F
 DIIS: error= 1.35D-06 at cycle   9 NSaved=   9.
 NSaved= 9 IEnMin= 9 EnMin= -389.155299655496     IErMin= 9 ErrMin= 1.35D-06
 ErrMax= 1.35D-06  0.00D+00 EMaxC= 1.00D-01 BMatC= 6.53D-10 BMatP= 4.91D-09
 IDIUse=1 WtCom= 1.00D+00 WtEn= 0.00D+00
 Coeff-Com:  0.122D-04-0.778D-04-0.581D-03 0.123D-02 0.420D-02 0.525D-02
 Coeff-Com: -0.723D-01-0.197D+00 0.126D+01
 Coeff:      0.122D-04-0.778D-04-0.581D-03 0.123D-02 0.420D-02 0.525D-02
 Coeff:     -0.723D-01-0.197D+00 0.126D+01
 Gap=     0.500 Goal=   None    Shift=    0.000
 RMSDP=2.99D-07 MaxDP=1.28D-05 DE=-1.53D-08 OVMax= 2.62D-05

 Cycle  10  Pass 1  IDiag  1:
 E= -389.155299657718     Delta-E=       -0.000000002222 Rises=F Damp=F
 DIIS: error= 4.11D-07 at cycle  10 NSaved=  10.
 NSaved=10 IEnMin=10 EnMin= -389.155299657718     IErMin=10 ErrMin= 4.11D-07
 ErrMax= 4.11D-07  0.00D+00 EMaxC= 1.00D-01 BMatC= 8.49D-11 BMatP= 6.53D-10
 IDIUse=1 WtCom= 1.00D+00 WtEn= 0.00D+00
 Coeff-Com:  0.803D-05-0.368D-04-0.304D-03-0.200D-03 0.163D-02 0.134D-01
 Coeff-Com:  0.123D-01-0.192D+00 0.979D-01 0.107D+01
 Coeff:      0.803D-05-0.368D-04-0.304D-03-0.200D-03 0.163D-02 0.134D-01
 Coeff:      0.123D-01-0.192D+00 0.979D-01 0.107D+01
 Gap=     0.500 Goal=   None    Shift=    0.000
 RMSDP=1.08D-07 MaxDP=3.32D-06 DE=-2.22D-09 OVMax= 8.53D-06

 Cycle  11  Pass 1  IDiag  1:
 E= -389.155299657939     Delta-E=       -0.000000000221 Rises=F Damp=F
 DIIS: error= 1.55D-07 at cycle  11 NSaved=  11.
 NSaved=11 IEnMin=11 EnMin= -389.155299657939     IErMin=11 ErrMin= 1.55D-07
 ErrMax= 1.55D-07  0.00D+00 EMaxC= 1.00D-01 BMatC= 5.88D-12 BMatP= 8.49D-11
 IDIUse=1 WtCom= 1.00D+00 WtEn= 0.00D+00
 Coeff-Com: -0.511D-06 0.460D-05 0.338D-04-0.107D-03-0.456D-03 0.981D-03
 Coeff-Com:  0.873D-02 0.499D-02-0.108D+00 0.924D-01 0.100D+01
 Coeff:     -0.511D-06 0.460D-05 0.338D-04-0.107D-03-0.456D-03 0.981D-03
 Coeff:      0.873D-02 0.499D-02-0.108D+00 0.924D-01 0.100D+01
 Gap=     0.500 Goal=   None    Shift=    0.000
 RMSDP=2.30D-08 MaxDP=1.01D-06 DE=-2.21D-10 OVMax= 2.02D-06

 Cycle  12  Pass 1  IDiag  1:
 E= -389.155299657966     Delta-E=       -0.000000000027 Rises=F Damp=F
 DIIS: error= 4.41D-08 at cycle  12 NSaved=  12.
 NSaved=12 IEnMin=12 EnMin= -389.155299657966     IErMin=12 ErrMin= 4.41D-08
 ErrMax= 4.41D-08  0.00D+00 EMaxC= 1.00D-01 BMatC= 9.44D-13 BMatP= 5.88D-12
 IDIUse=1 WtCom= 1.00D+00 WtEn= 0.00D+00
 Coeff-Com: -0.945D-06 0.495D-05 0.398D-04 0.175D-05-0.291D-03-0.124D-02
 Coeff-Com:  0.338D-03 0.206D-01-0.365D-01-0.106D+00 0.192D+00 0.931D+00
 Coeff:     -0.945D-06 0.495D-05 0.398D-04 0.175D-05-0.291D-03-0.124D-02
 Coeff:      0.338D-03 0.206D-01-0.365D-01-0.106D+00 0.192D+00 0.931D+00
 Gap=     0.500 Goal=   None    Shift=    0.000
 RMSDP=9.73D-09 MaxDP=2.60D-07 DE=-2.66D-11 OVMax= 6.37D-07

 SCF Done:  E(RHF) =  -389.155299658     A.U. after   12 cycles
            NFock= 12  Conv=0.97D-08     -V/T= 2.0014
 KE= 3.886243936711D+02 PE=-1.931189392091D+03 EE= 6.401321154074D+02
 Leave Link  502 at Fri Sep 17 13:33:28 2021, MaxMem=   524288000 cpu:              37.4 elap:              38.0
 (Enter /opt/gaussian/g16_legacy/l801.exe)
 ExpMin= 1.61D-01 ExpMax= 3.05D+03 ExpMxC= 4.57D+02 IAcc=3 IRadAn=         5 AccDes= 0.00D+00
 HarFok:  IExCor=  205 AccDes= 0.00D+00 IRadAn=         5 IDoV=-2 UseB2=F ITyADJ=14
 ICtDFT= 12500011 ScaDFX=  1.000000  1.000000  1.000000  1.000000
 Largest valence mixing into a core orbital is  1.97D-04
 Largest core mixing into a valence orbital is  3.52D-05
 Range of M.O.s used for correlation:    11   240
 NBasis=   240 NAE=    39 NBE=    39 NFC=    10 NFV=     0
 NROrb=    230 NOA=    29 NOB=    29 NVA=   201 NVB=   201
 Leave Link  801 at Fri Sep 17 13:33:30 2021, MaxMem=   524288000 cpu:               1.5 elap:               1.7
 (Enter /opt/gaussian/g16_legacy/l906.exe)
 Frozen-core derivative calculation, NFC=  10 NFV=   0.
 FulOut=F Deriv=T AODrv=T NAtomX=    28
   MMem=          89  MDisk=          29 MDiskD=          29
  W3Min=     2246400 MinDsk=     2795480 NBas6D=         240
 NBas2D=       29244    NTT=       28920    LW2=     2040000
    MDV=   523629461 MDiskM=       30186 NBas2p=       24099
 Fully direct method using O(ONN) memory.
 IMap=   1   2   3   4   5   6   7   8   9  10  11  12  13  14  15  16  17  18  19  20
 IMap=  21  22  23  24  25  26  27  28  29  30  31  32  33  34  35  36  37  38  39
 JobTyp=1 Pass  1:  I=  11 to  39 NPSUse=  1 ParTrn=F ParDer=F DoDerP=T.
 Spin components of T(2) and E(2):
     alpha-alpha T2 =       0.5711541969D-01 E2=     -0.1637342129D+00
     alpha-beta  T2 =       0.3617441722D+00 E2=     -0.1089192309D+01
     beta-beta   T2 =       0.5711541969D-01 E2=     -0.1637342129D+00
 The integrals were generated   1 times.
 ANorm=    0.1214897120D+01
 E2 =    -0.1416660735D+01 EUMP2 =    -0.39057196039258D+03
 Leave Link  906 at Fri Sep 17 13:38:04 2021, MaxMem=   524288000 cpu:             274.0 elap:             274.2
 (Enter /opt/gaussian/g16_legacy/l1002.exe)
 Minotr:  Closed shell wavefunction.
          Computing MP2/KS-MP2 derivatives.
          Using Z-Vector for PSCF gradient.
          Skipping F1 and S1 gradient terms here.
          IDoAtm=1111111111111111111111111111
          Frozen-core window.
          Direct CPHF calculation.
          Differentiating once with respect to electric field.
                with respect to dipole field.
          Differentiating once with respect to nuclear coordinates.
          Requested convergence is 1.0D-10 RMS, and 1.0D-09 maximum.
          NewPWx=F KeepS1=T KeepF1=T KeepIn=T MapXYZ=F SortEE=F KeepMc=T.
 Keep R1 ints in memory in canonical form, NReq=425201067.
 FoFCou: FMM=F IPFlag=           0 FMFlag=           0 FMFlg1=           0
         NFxFlg=           0 DoJE=F BraDBF=F KetDBF=F FulRan=T
         wScrn=  0.000000 ICntrl=       600 IOpCl=  0 I1Cent=           0 NGrid=           0
         NMat0=    1 NMatS0=  28920 NMatT0=    0 NMatD0=    1 NMtDS0=    0 NMtDT0=    0
 Symmetry not used in FoFCou.
 Two-electron integral symmetry not used.
          MDV=     524288000 using IRadAn=       5.
          Solving linear equations separately, MaxMat=       0.
          There are     1 degrees of freedom in the 1st order CPHF.  IDoFFX=0 NUNeed=     1.
 LinEq1:  Iter=  0 NonCon=     1 RMS=2.55D-03 Max=4.26D-02 NDo=     1
 AX will form     1 AO Fock derivatives at one time.
 LinEq1:  Iter=  1 NonCon=     1 RMS=6.89D-04 Max=1.12D-02 NDo=     1
 LinEq1:  Iter=  2 NonCon=     1 RMS=1.61D-04 Max=4.13D-03 NDo=     1
 LinEq1:  Iter=  3 NonCon=     1 RMS=4.42D-05 Max=5.11D-04 NDo=     1
 LinEq1:  Iter=  4 NonCon=     1 RMS=1.99D-05 Max=8.26D-04 NDo=     1
 LinEq1:  Iter=  5 NonCon=     1 RMS=4.81D-06 Max=8.80D-05 NDo=     1
 LinEq1:  Iter=  6 NonCon=     1 RMS=1.45D-06 Max=2.33D-05 NDo=     1
 LinEq1:  Iter=  7 NonCon=     1 RMS=4.00D-07 Max=4.13D-06 NDo=     1
 LinEq1:  Iter=  8 NonCon=     1 RMS=8.44D-08 Max=1.47D-06 NDo=     1
 LinEq1:  Iter=  9 NonCon=     1 RMS=2.22D-08 Max=5.48D-07 NDo=     1
 LinEq1:  Iter= 10 NonCon=     1 RMS=7.40D-09 Max=1.95D-07 NDo=     1
 LinEq1:  Iter= 11 NonCon=     1 RMS=2.36D-09 Max=7.29D-08 NDo=     1
 LinEq1:  Iter= 12 NonCon=     1 RMS=8.58D-10 Max=1.37D-08 NDo=     1
 LinEq1:  Iter= 13 NonCon=     1 RMS=2.39D-10 Max=3.43D-09 NDo=     1
 LinEq1:  Iter= 14 NonCon=     0 RMS=5.52D-11 Max=6.92D-10 NDo=     1
 Linear equations converged to 1.000D-10 1.000D-09 after    14 iterations.
 End of Minotr F.D. properties file   721 does not exist.
 End of Minotr F.D. properties file   722 does not exist.
 End of Minotr F.D. properties file   788 does not exist.
 Leave Link 1002 at Fri Sep 17 13:38:44 2021, MaxMem=   524288000 cpu:              40.4 elap:              40.4
 (Enter /opt/gaussian/g16_legacy/l601.exe)
 Copying SCF densities to generalized density rwf, IOpCl= 0 IROHF=0.

 **********************************************************************

            Population analysis using the SCF density.

 **********************************************************************

 Orbital symmetries:
       Occupied  (A) (A) (A) (A) (A) (A) (A) (A) (A) (A) (A) (A)
                 (A) (A) (A) (A) (A) (A) (A) (A) (A) (A) (A) (A)
                 (A) (A) (A) (A) (A) (A) (A) (A) (A) (A) (A) (A)
                 (A) (A) (A)
       Virtual   (A) (A) (A) (A) (A) (A) (A) (A) (A) (A) (A) (A)
                 (A) (A) (A) (A) (A) (A) (A) (A) (A) (A) (A) (A)
                 (A) (A) (A) (A) (A) (A) (A) (A) (A) (A) (A) (A)
                 (A) (A) (A) (A) (A) (A) (A) (A) (A) (A) (A) (A)
                 (A) (A) (A) (A) (A) (A) (A) (A) (A) (A) (A) (A)
                 (A) (A) (A) (A) (A) (A) (A) (A) (A) (A) (A) (A)
                 (A) (A) (A) (A) (A) (A) (A) (A) (A) (A) (A) (A)
                 (A) (A) (A) (A) (A) (A) (A) (A) (A) (A) (A) (A)
                 (A) (A) (A) (A) (A) (A) (A) (A) (A) (A) (A) (A)
                 (A) (A) (A) (A) (A) (A) (A) (A) (A) (A) (A) (A)
                 (A) (A) (A) (A) (A) (A) (A) (A) (A) (A) (A) (A)
                 (A) (A) (A) (A) (A) (A) (A) (A) (A) (A) (A) (A)
                 (A) (A) (A) (A) (A) (A) (A) (A) (A) (A) (A) (A)
                 (A) (A) (A) (A) (A) (A) (A) (A) (A) (A) (A) (A)
                 (A) (A) (A) (A) (A) (A) (A) (A) (A) (A) (A) (A)
                 (A) (A) (A) (A) (A) (A) (A) (A) (A) (A) (A) (A)
                 (A) (A) (A) (A) (A) (A) (A) (A) (A)
 The electronic state is 1-A.
 Alpha  occ. eigenvalues --  -11.23059 -11.22492 -11.21994 -11.21919 -11.21894
 Alpha  occ. eigenvalues --  -11.21651 -11.21538 -11.21499 -11.21456 -11.21436
 Alpha  occ. eigenvalues --   -1.10615  -1.08328  -1.01892  -0.98024  -0.93646
 Alpha  occ. eigenvalues --   -0.91774  -0.86739  -0.82690  -0.70609  -0.69413
 Alpha  occ. eigenvalues --   -0.64401  -0.61335  -0.60398  -0.59006  -0.58078
 Alpha  occ. eigenvalues --   -0.56878  -0.55469  -0.55040  -0.53550  -0.51978
 Alpha  occ. eigenvalues --   -0.51779  -0.51260  -0.50451  -0.49765  -0.47237
 Alpha  occ. eigenvalues --   -0.46642  -0.44233  -0.33255  -0.31613
 Alpha virt. eigenvalues --    0.18419   0.19607   0.22268   0.24509   0.24867
 Alpha virt. eigenvalues --    0.27280   0.28582   0.29021   0.30342   0.30570
 Alpha virt. eigenvalues --    0.31452   0.32295   0.32994   0.33605   0.33918
 Alpha virt. eigenvalues --    0.34861   0.36107   0.37175   0.38359   0.39994
 Alpha virt. eigenvalues --    0.40807   0.41938   0.42662   0.44320   0.45311
 Alpha virt. eigenvalues --    0.51885   0.54070   0.61043   0.62387   0.69421
 Alpha virt. eigenvalues --    0.71418   0.71711   0.74324   0.75991   0.76601
 Alpha virt. eigenvalues --    0.77889   0.78836   0.80149   0.80437   0.82526
 Alpha virt. eigenvalues --    0.82864   0.85807   0.89228   0.90312   0.92127
 Alpha virt. eigenvalues --    0.93067   0.94945   0.96558   0.97592   0.99409
 Alpha virt. eigenvalues --    0.99666   1.01111   1.02714   1.04774   1.06343
 Alpha virt. eigenvalues --    1.07246   1.08349   1.08463   1.10884   1.12200
 Alpha virt. eigenvalues --    1.13084   1.13494   1.14142   1.15110   1.15425
 Alpha virt. eigenvalues --    1.15971   1.16404   1.17990   1.18281   1.20094
 Alpha virt. eigenvalues --    1.20923   1.22026   1.22904   1.24887   1.26885
 Alpha virt. eigenvalues --    1.29778   1.39910   1.40851   1.44073   1.45168
 Alpha virt. eigenvalues --    1.46114   1.53925   1.55257   1.57489   1.59004
 Alpha virt. eigenvalues --    1.61319   1.62901   1.65441   1.68692   1.70717
 Alpha virt. eigenvalues --    1.74995   1.83305   1.90943   1.92637   1.95889
 Alpha virt. eigenvalues --    1.98118   2.01342   2.02513   2.04961   2.08419
 Alpha virt. eigenvalues --    2.09277   2.11237   2.11878   2.13546   2.13760
 Alpha virt. eigenvalues --    2.15744   2.17933   2.19182   2.23537   2.27675
 Alpha virt. eigenvalues --    2.27929   2.30152   2.32120   2.34933   2.35556
 Alpha virt. eigenvalues --    2.35640   2.35786   2.39414   2.39794   2.40226
 Alpha virt. eigenvalues --    2.41253   2.41846   2.42900   2.44987   2.45574
 Alpha virt. eigenvalues --    2.47185   2.49015   2.49667   2.49766   2.53205
 Alpha virt. eigenvalues --    2.56184   2.58404   2.60483   2.62608   2.64593
 Alpha virt. eigenvalues --    2.66046   2.67903   2.71570   2.72559   2.74076
 Alpha virt. eigenvalues --    2.76095   2.77694   2.80999   2.82553   2.84078
 Alpha virt. eigenvalues --    2.86959   2.90350   2.92351   2.93719   2.93884
 Alpha virt. eigenvalues --    2.97257   2.98946   3.00897   3.02343   3.04615
 Alpha virt. eigenvalues --    3.06569   3.07046   3.09534   3.11566   3.16238
 Alpha virt. eigenvalues --    3.17170   3.17502   3.19748   3.20512   3.20975
 Alpha virt. eigenvalues --    3.22293   3.25235   3.26472   3.27441   3.37026
 Alpha virt. eigenvalues --    3.39004   3.44381   3.45751   3.55472   3.57319
 Alpha virt. eigenvalues --    3.58496   3.60434   3.67987   3.73337   3.78349
 Alpha virt. eigenvalues --    3.78758   3.80290   3.81202   3.82236   3.82859
 Alpha virt. eigenvalues --    3.83544   3.85740   3.87950   3.89122   3.90867
 Alpha virt. eigenvalues --    3.96060   4.59176   4.62294   4.74494   4.82467
 Alpha virt. eigenvalues --    4.89197   4.92414   4.93233   5.07346   5.10306
 Alpha virt. eigenvalues --    5.16932
          Condensed to atoms (all electrons):
               1          2          3          4          5          6
     1  C    5.000775   0.412394   0.414391   0.339578  -0.058816   0.003653
     2  H    0.412394   0.583797  -0.030333  -0.045108  -0.004632   0.000093
     3  H    0.414391  -0.030333   0.576720  -0.040662   0.003304  -0.000107
     4  C    0.339578  -0.045108  -0.040662   4.957275   0.350749  -0.041413
     5  C   -0.058816  -0.004632   0.003304   0.350749   4.895113   0.406597
     6  H    0.003653   0.000093  -0.000107  -0.041413   0.406597   0.570187
     7  H   -0.000424  -0.000305  -0.000036  -0.046049   0.399660  -0.028112
     8  H   -0.003456   0.002508  -0.000014  -0.043206   0.397607  -0.027590
     9  C   -0.043518   0.001833  -0.002304   0.696639  -0.045815  -0.002763
    10  H    0.003082  -0.000112   0.000055  -0.036449  -0.006440   0.002176
    11  C   -0.007010   0.000131  -0.002042  -0.050635   0.003398   0.000140
    12  H    0.000232  -0.000010  -0.000035   0.000511  -0.000102  -0.000008
    13  H   -0.002038   0.000010  -0.001242  -0.000450   0.000090   0.000004
    14  H    0.000216   0.000029   0.000157  -0.001298  -0.000114  -0.000004
    15  C   -0.000105  -0.000032  -0.000001   0.000001  -0.000000   0.000000
    16  H    0.000021  -0.000005  -0.000001  -0.000000   0.000000  -0.000000
    17  H   -0.000004   0.000001   0.000000   0.000000  -0.000000   0.000000
    18  H   -0.000002  -0.000002   0.000002   0.000000  -0.000000  -0.000000
    19  C   -0.002759   0.000934   0.000602  -0.000035   0.000007  -0.000000
    20  C    0.000487   0.000129  -0.000011  -0.000018  -0.000017   0.000000
    21  H    0.000071  -0.000066  -0.000000  -0.000002   0.000000  -0.000000
    22  H    0.000080   0.000148  -0.000011  -0.000063   0.000095  -0.000001
    23  H   -0.000041   0.000012   0.000000   0.000001  -0.000000   0.000000
    24  C   -0.062584  -0.000486  -0.001372   0.006102  -0.000075   0.000002
    25  H   -0.000349   0.000186   0.001131  -0.000118  -0.000002   0.000000
    26  C    0.325375  -0.042903  -0.041392  -0.056891  -0.000803  -0.000094
    27  H   -0.045285   0.004396  -0.002681  -0.001367   0.000304  -0.000006
    28  H   -0.040030  -0.002359   0.004047  -0.002267  -0.000487  -0.000024
               7          8          9         10         11         12
     1  C   -0.000424  -0.003456  -0.043518   0.003082  -0.007010   0.000232
     2  H   -0.000305   0.002508   0.001833  -0.000112   0.000131  -0.000010
     3  H   -0.000036  -0.000014  -0.002304   0.000055  -0.002042  -0.000035
     4  C   -0.046049  -0.043206   0.696639  -0.036449  -0.050635   0.000511
     5  C    0.399660   0.397607  -0.045815  -0.006440   0.003398  -0.000102
     6  H   -0.028112  -0.027590  -0.002763   0.002176   0.000140  -0.000008
     7  H    0.598062  -0.035170  -0.000963   0.000130  -0.000102   0.000015
     8  H   -0.035170   0.593356  -0.000479   0.000245  -0.000113  -0.000004
     9  C   -0.000963  -0.000479   4.940008   0.404567   0.338339  -0.042707
    10  H    0.000130   0.000245   0.404567   0.559878  -0.043636  -0.002623
    11  C   -0.000102  -0.000113   0.338339  -0.043636   4.903480   0.402929
    12  H    0.000015  -0.000004  -0.042707  -0.002623   0.402929   0.585779
    13  H    0.000001  -0.000001  -0.041996   0.003344   0.408021  -0.029450
    14  H   -0.000005   0.000021  -0.044537  -0.000244   0.400270  -0.033317
    15  C   -0.000000   0.000000  -0.000000   0.000000   0.000000  -0.000000
    16  H    0.000000  -0.000000   0.000000  -0.000000  -0.000000   0.000000
    17  H    0.000000  -0.000000  -0.000000   0.000000  -0.000000  -0.000000
    18  H   -0.000000  -0.000000   0.000000   0.000000  -0.000000   0.000000
    19  C    0.000017  -0.000001  -0.000002   0.000000   0.000000   0.000000
    20  C   -0.000029  -0.000002  -0.000000  -0.000000  -0.000000  -0.000000
    21  H   -0.000001   0.000000   0.000000  -0.000000   0.000000   0.000000
    22  H    0.000222   0.000005  -0.000001   0.000000  -0.000000   0.000000
    23  H   -0.000000   0.000000   0.000000   0.000000   0.000000  -0.000000
    24  C   -0.000082   0.000000  -0.000010   0.000002  -0.000022  -0.000002
    25  H   -0.000000   0.000000   0.000009  -0.000000  -0.000002  -0.000000
    26  C    0.000832   0.000024  -0.003334  -0.000120   0.000493   0.000079
    27  H    0.000016   0.000006   0.000946  -0.000032   0.000106  -0.000059
    28  H   -0.000581   0.000076   0.000498   0.000002  -0.000024   0.000000
              13         14         15         16         17         18
     1  C   -0.002038   0.000216  -0.000105   0.000021  -0.000004  -0.000002
     2  H    0.000010   0.000029  -0.000032  -0.000005   0.000001  -0.000002
     3  H   -0.001242   0.000157  -0.000001  -0.000001   0.000000   0.000002
     4  C   -0.000450  -0.001298   0.000001  -0.000000   0.000000   0.000000
     5  C    0.000090  -0.000114  -0.000000   0.000000  -0.000000  -0.000000
     6  H    0.000004  -0.000004   0.000000  -0.000000   0.000000  -0.000000
     7  H    0.000001  -0.000005  -0.000000   0.000000   0.000000  -0.000000
     8  H   -0.000001   0.000021   0.000000  -0.000000  -0.000000  -0.000000
     9  C   -0.041996  -0.044537  -0.000000   0.000000  -0.000000   0.000000
    10  H    0.003344  -0.000244   0.000000  -0.000000   0.000000   0.000000
    11  C    0.408021   0.400270   0.000000  -0.000000  -0.000000  -0.000000
    12  H   -0.029450  -0.033317  -0.000000   0.000000  -0.000000   0.000000
    13  H    0.575223  -0.027462  -0.000000  -0.000000   0.000000   0.000000
    14  H   -0.027462   0.585297   0.000000  -0.000000   0.000000  -0.000000
    15  C   -0.000000   0.000000   4.903514   0.396986   0.399259   0.405368
    16  H   -0.000000  -0.000000   0.396986   0.594249  -0.034900  -0.027349
    17  H    0.000000   0.000000   0.399259  -0.034900   0.593145  -0.027571
    18  H    0.000000  -0.000000   0.405368  -0.027349  -0.027571   0.568079
    19  C    0.000001  -0.000000   0.351804  -0.044195  -0.045804  -0.040407
    20  C    0.000000   0.000000  -0.065384  -0.002145  -0.001092   0.003697
    21  H   -0.000000  -0.000000  -0.003425   0.002837  -0.000508   0.000012
    22  H    0.000000  -0.000000   0.003708  -0.000072  -0.000024  -0.000109
    23  H    0.000000   0.000000  -0.001682  -0.000367   0.002542  -0.000080
    24  C    0.000034   0.000002  -0.044530  -0.000622  -0.001112  -0.002345
    25  H    0.000035  -0.000000  -0.006706   0.000223   0.000153   0.002204
    26  C   -0.000174  -0.000045   0.003142  -0.000086  -0.000123   0.000141
    27  H    0.000114   0.000018  -0.000098  -0.000002   0.000012  -0.000011
    28  H   -0.000005  -0.000000   0.000062  -0.000003   0.000004   0.000006
              19         20         21         22         23         24
     1  C   -0.002759   0.000487   0.000071   0.000080  -0.000041  -0.062584
     2  H    0.000934   0.000129  -0.000066   0.000148   0.000012  -0.000486
     3  H    0.000602  -0.000011  -0.000000  -0.000011   0.000000  -0.001372
     4  C   -0.000035  -0.000018  -0.000002  -0.000063   0.000001   0.006102
     5  C    0.000007  -0.000017   0.000000   0.000095  -0.000000  -0.000075
     6  H   -0.000000   0.000000  -0.000000  -0.000001   0.000000   0.000002
     7  H    0.000017  -0.000029  -0.000001   0.000222  -0.000000  -0.000082
     8  H   -0.000001  -0.000002   0.000000   0.000005   0.000000   0.000000
     9  C   -0.000002  -0.000000   0.000000  -0.000001   0.000000  -0.000010
    10  H    0.000000  -0.000000  -0.000000   0.000000   0.000000   0.000002
    11  C    0.000000  -0.000000   0.000000  -0.000000   0.000000  -0.000022
    12  H    0.000000  -0.000000   0.000000   0.000000  -0.000000  -0.000002
    13  H    0.000001   0.000000  -0.000000   0.000000   0.000000   0.000034
    14  H   -0.000000   0.000000  -0.000000  -0.000000   0.000000   0.000002
    15  C    0.351804  -0.065384  -0.003425   0.003708  -0.001682  -0.044530
    16  H   -0.044195  -0.002145   0.002837  -0.000072  -0.000367  -0.000622
    17  H   -0.045804  -0.001092  -0.000508  -0.000024   0.002542  -0.001112
    18  H   -0.040407   0.003697   0.000012  -0.000109  -0.000080  -0.002345
    19  C    4.920146   0.348925  -0.043830  -0.036973  -0.043920   0.695500
    20  C    0.348925   4.906854   0.402441   0.405942   0.398566  -0.043598
    21  H   -0.043830   0.402441   0.585526  -0.029646  -0.033085   0.000408
    22  H   -0.036973   0.405942  -0.029646   0.570750  -0.026878  -0.002889
    23  H   -0.043920   0.398566  -0.033085  -0.026878   0.583087  -0.000743
    24  C    0.695500  -0.043598   0.000408  -0.002889  -0.000743   4.962275
    25  H   -0.035971   0.003359  -0.000112   0.000053  -0.000124   0.403009
    26  C   -0.048867  -0.007185   0.000276  -0.002349   0.000191   0.341687
    27  H    0.000972   0.000145  -0.000012   0.000041   0.000033  -0.044008
    28  H    0.000558  -0.001879  -0.000035  -0.001474   0.000040  -0.043139
              25         26         27         28
     1  C   -0.000349   0.325375  -0.045285  -0.040030
     2  H    0.000186  -0.042903   0.004396  -0.002359
     3  H    0.001131  -0.041392  -0.002681   0.004047
     4  C   -0.000118  -0.056891  -0.001367  -0.002267
     5  C   -0.000002  -0.000803   0.000304  -0.000487
     6  H    0.000000  -0.000094  -0.000006  -0.000024
     7  H   -0.000000   0.000832   0.000016  -0.000581
     8  H    0.000000   0.000024   0.000006   0.000076
     9  C    0.000009  -0.003334   0.000946   0.000498
    10  H   -0.000000  -0.000120  -0.000032   0.000002
    11  C   -0.000002   0.000493   0.000106  -0.000024
    12  H   -0.000000   0.000079  -0.000059   0.000000
    13  H    0.000035  -0.000174   0.000114  -0.000005
    14  H   -0.000000  -0.000045   0.000018  -0.000000
    15  C   -0.006706   0.003142  -0.000098   0.000062
    16  H    0.000223  -0.000086  -0.000002  -0.000003
    17  H    0.000153  -0.000123   0.000012   0.000004
    18  H    0.002204   0.000141  -0.000011   0.000006
    19  C   -0.035971  -0.048867   0.000972   0.000558
    20  C    0.003359  -0.007185   0.000145  -0.001879
    21  H   -0.000112   0.000276  -0.000012  -0.000035
    22  H    0.000053  -0.002349   0.000041  -0.001474
    23  H   -0.000124   0.000191   0.000033   0.000040
    24  C    0.403009   0.341687  -0.044008  -0.043139
    25  H    0.558240  -0.041943  -0.003530   0.003303
    26  C   -0.041943   4.978468   0.415016   0.414996
    27  H   -0.003530   0.415016   0.581204  -0.029791
    28  H    0.003303   0.414996  -0.029791   0.579626
 Mulliken charges:
               1
     1  C   -0.233935
     2  H    0.119754
     3  H    0.121834
     4  C    0.015175
     5  C   -0.339622
     6  H    0.117271
     7  H    0.112904
     8  H    0.116185
     9  C   -0.154411
    10  H    0.116174
    11  C   -0.353720
    12  H    0.118772
    13  H    0.115941
    14  H    0.121017
    15  C   -0.341881
    16  H    0.115433
    17  H    0.116020
    18  H    0.118367
    19  C    0.023297
    20  C   -0.349186
    21  H    0.119152
    22  H    0.119444
    23  H    0.122445
    24  C   -0.161402
    25  H    0.116952
    26  C   -0.234411
    27  H    0.123552
    28  H    0.118878
 Sum of Mulliken charges =  -0.00000
 Mulliken charges with hydrogens summed into heavy atoms:
               1
     1  C    0.007654
     4  C    0.015175
     5  C    0.006738
     9  C   -0.038238
    11  C    0.002010
    15  C    0.007939
    19  C    0.023297
    20  C    0.011856
    24  C   -0.044450
    26  C    0.008020
 Electronic spatial extent (au):  <R**2>=           2544.9930
 Charge=             -0.0000 electrons
 Dipole moment (field-independent basis, Debye):
    X=              0.3489    Y=              0.1467    Z=              0.0262  Tot=              0.3794
 Quadrupole moment (field-independent basis, Debye-Ang):
   XX=            -63.8836   YY=            -63.9181   ZZ=            -67.2167
   XY=              0.9693   XZ=              0.9091   YZ=             -0.2405
 Traceless Quadrupole moment (field-independent basis, Debye-Ang):
   XX=              1.1226   YY=              1.0880   ZZ=             -2.2106
   XY=              0.9693   XZ=              0.9091   YZ=             -0.2405
 Octapole moment (field-independent basis, Debye-Ang**2):
  XXX=              0.9171  YYY=             -2.8074  ZZZ=              0.8874  XYY=             -0.2829
  XXY=              1.7978  XXZ=             -2.7145  XZZ=              1.8057  YZZ=              1.3750
  YYZ=              0.5286  XYZ=             -0.3803
 Hexadecapole moment (field-independent basis, Debye-Ang**3):
 XXXX=          -2708.1684 YYYY=           -641.3432 ZZZZ=           -161.4636 XXXY=              7.7072
 XXXZ=             11.8766 YYYX=             -8.1731 YYYZ=             -1.4894 ZZZX=              2.8132
 ZZZY=              1.9629 XXYY=           -565.0335 XXZZ=           -492.0562 YYZZ=           -130.8327
 XXYZ=             -3.0872 YYXZ=              1.7825 ZZXY=              8.1574
 N-N= 5.132775833547D+02 E-N=-1.931189391092D+03  KE= 3.886243936711D+02
 No NMR shielding tensors so no spin-rotation constants.
 Leave Link  601 at Fri Sep 17 13:38:45 2021, MaxMem=   524288000 cpu:               0.3 elap:               0.3
 (Enter /opt/gaussian/g16_legacy/l701.exe)
 ... and contract with generalized density number  2.
 Compute integral first derivatives.
 Leave Link  701 at Fri Sep 17 13:38:45 2021, MaxMem=   524288000 cpu:               0.3 elap:               0.3
 (Enter /opt/gaussian/g16_legacy/l702.exe)
 L702 exits ... SP integral derivatives will be done elsewhere.
 Leave Link  702 at Fri Sep 17 13:38:45 2021, MaxMem=   524288000 cpu:               0.1 elap:               0.1
 (Enter /opt/gaussian/g16_legacy/l703.exe)
 Integral derivatives from FoFJK, PRISM(SPDF).
 Compute integral first derivatives, UseDBF=F ICtDFT=           0.
 Calling FoFJK, ICntrl=  10002127 FMM=F ISym2X=0 I1Cent= 0 IOpClX= 0 NMat=1 NMatS=1 NMatT=0.
 FoFJK:  IHMeth= 1 ICntrl=10002127 DoSepK=F KAlg= 0 I1Cent=           0 FoldK=F
 IRaf=         0 NMat=       1 IRICut=       1 DoRegI=T DoRafI=F ISym2E= 0 IDoP0=0 IntGTp=1.
 FoFCou: FMM=F IPFlag=           0 FMFlag=      100000 FMFlg1=         800
         NFxFlg=           0 DoJE=F BraDBF=F KetDBF=F FulRan=T
         wScrn=  0.000000 ICntrl=  10002127 IOpCl=  0 I1Cent=           0 NGrid=           0
         NMat0=    1 NMatS0=      1 NMatT0=    0 NMatD0=    1 NMtDS0=    0 NMtDT0=    0
 Symmetry not used in FoFCou.
 Leave Link  703 at Fri Sep 17 13:39:19 2021, MaxMem=   524288000 cpu:              33.7 elap:              33.8
 (Enter /opt/gaussian/g16_legacy/l716.exe)
 Dipole        = 1.00052377D-01 3.49965759D-02 3.62567143D-03
 ***** Axes restored to original set *****
 -------------------------------------------------------------------
 Center     Atomic                   Forces (Hartrees/Bohr)
 Number     Number              X              Y              Z
 -------------------------------------------------------------------
      1        6           0.006458983    0.000782704   -0.006282125
      2        1           0.001622849   -0.001727107    0.003750781
      3        1           0.001062344    0.000023788    0.003823646
      4        6           0.001186597    0.003374831   -0.004997896
      5        6           0.002856843    0.000666205   -0.000048303
      6        1          -0.002890595   -0.002901839    0.000043205
      7        1          -0.001321957    0.002046116   -0.002255278
      8        1          -0.000052834   -0.000722252    0.003289824
      9        6          -0.001083087    0.000488465    0.003485756
     10        1          -0.003028954    0.001144461    0.001421601
     11        6          -0.000984253   -0.002633147   -0.000285702
     12        1          -0.001428533    0.000318732   -0.003143452
     13        1           0.001740451    0.002861730   -0.000811127
     14        1           0.000503179   -0.002910750    0.001694325
     15        6           0.000327448   -0.002646904   -0.002072168
     16        1          -0.000334892   -0.001206153    0.003300557
     17        1          -0.001576796    0.001767140   -0.002440284
     18        1           0.001501930    0.003748439    0.001656570
     19        6          -0.000113909   -0.002833954   -0.004719380
     20        6           0.003932628    0.002609408    0.000001242
     21        1           0.000404929   -0.002416110    0.002736437
     22        1          -0.001462897   -0.003177638    0.000308198
     23        1          -0.001511255    0.001947019   -0.001974322
     24        6           0.003171180   -0.000458455    0.004018949
     25        1          -0.002505017    0.002020593    0.000959441
     26        6          -0.005399846   -0.003121120    0.004549153
     27        1           0.000114675    0.003008990   -0.003004514
     28        1          -0.001189212   -0.000053189   -0.003005136
 -------------------------------------------------------------------
 Cartesian Forces:  Max     0.006458983 RMS     0.002537835
 Leave Link  716 at Fri Sep 17 13:39:19 2021, MaxMem=   524288000 cpu:               0.1 elap:               0.1
 (Enter /opt/gaussian/g16_legacy/l103.exe)

 GradGradGradGradGradGradGradGradGradGradGradGradGradGradGradGradGradGrad
 Berny optimization.
 FormGI is forming the generalized inverse of G from B-inverse, IUseBI=4.
 Internal  Forces:  Max     0.004118096 RMS     0.001892139
 Search for a local minimum.
 Step number   1 out of a maximum of  138
 All quantities printed in internal units (Hartrees-Bohrs-Radians)
 RMS Force = .18921D-02 SwitMx=.10000D-02 MixMth= 1
 Mixed Optimization -- RFO/linear search
 Second derivative matrix not updated -- first step.
 ITU=  0
     Eigenvalues ---    0.00342   0.00570   0.00667   0.00680   0.00692
     Eigenvalues ---    0.00715   0.00820   0.01219   0.01287   0.01569
     Eigenvalues ---    0.01642   0.02780   0.02785   0.04014   0.04133
     Eigenvalues ---    0.05350   0.05403   0.06981   0.07039   0.07087
     Eigenvalues ---    0.07092   0.07265   0.07300   0.07347   0.07505
     Eigenvalues ---    0.09278   0.09365   0.12769   0.12846   0.15999
     Eigenvalues ---    0.15999   0.16000   0.16000   0.16000   0.16000
     Eigenvalues ---    0.16000   0.16000   0.16000   0.16000   0.16000
     Eigenvalues ---    0.16000   0.16000   0.16000   0.21859   0.21867
     Eigenvalues ---    0.22000   0.22000   0.24993   0.24996   0.24998
     Eigenvalues ---    0.24999   0.29235   0.30873   0.31605   0.31705
     Eigenvalues ---    0.31801   0.31979   0.32807   0.33862   0.33933
     Eigenvalues ---    0.34067   0.34195   0.34225   0.34231   0.34234
     Eigenvalues ---    0.34246   0.34249   0.34259   0.34265   0.34294
     Eigenvalues ---    0.34294   0.34334   0.34536   0.34553   0.34795
     Eigenvalues ---    0.34847   0.55501   0.55584
 RFO step:  Lambda=-2.86568611D-03 EMin= 3.41935848D-03
 Linear search not attempted -- first point.
 Iteration  1 RMS(Cart)=  0.04041850 RMS(Int)=  0.00070810
 Iteration  2 RMS(Cart)=  0.00101808 RMS(Int)=  0.00015624
 Iteration  3 RMS(Cart)=  0.00000056 RMS(Int)=  0.00015624
 ITry= 1 IFail=0 DXMaxC= 1.39D-01 DCOld= 1.00D+10 DXMaxT= 3.00D-01 DXLimC= 3.00D+00 Rises=F
 Variable       Old X    -DE/DX   Delta X   Delta X   Delta X     New X
                                 (Linear)    (Quad)   (Total)
    R1        2.07563  -0.00310   0.00000  -0.00909  -0.00909   2.06654
    R2        2.07217  -0.00291   0.00000  -0.00848  -0.00848   2.06369
    R3        2.86255  -0.00347   0.00000  -0.01115  -0.01115   2.85140
    R4        2.89516   0.00159   0.00000   0.00538   0.00538   2.90054
    R5        2.84873  -0.00063   0.00000  -0.00199  -0.00199   2.84674
    R6        2.54689  -0.00389   0.00000  -0.00697  -0.00697   2.53992
    R7        2.06942  -0.00369   0.00000  -0.01068  -0.01068   2.05874
    R8        2.06836  -0.00171   0.00000  -0.00494  -0.00494   2.06342
    R9        2.06913  -0.00215   0.00000  -0.00623  -0.00623   2.06290
   R10        2.05923  -0.00217   0.00000  -0.00618  -0.00618   2.05305
   R11        2.82691   0.00310   0.00000   0.00938   0.00938   2.83629
   R12        2.06885  -0.00264   0.00000  -0.00764  -0.00764   2.06121
   R13        2.06407  -0.00305   0.00000  -0.00875  -0.00875   2.05532
   R14        2.06770  -0.00160   0.00000  -0.00462  -0.00462   2.06307
   R15        2.06916  -0.00201   0.00000  -0.00582  -0.00582   2.06335
   R16        2.06936  -0.00207   0.00000  -0.00599  -0.00599   2.06337
   R17        2.06952  -0.00397   0.00000  -0.01152  -0.01152   2.05800
   R18        2.84687  -0.00075   0.00000  -0.00234  -0.00234   2.84453
   R19        2.84182  -0.00046   0.00000  -0.00143  -0.00143   2.84039
   R20        2.54616  -0.00319   0.00000  -0.00570  -0.00570   2.54046
   R21        2.07002  -0.00269   0.00000  -0.00780  -0.00780   2.06222
   R22        2.06435  -0.00295   0.00000  -0.00846  -0.00846   2.05589
   R23        2.06895  -0.00192   0.00000  -0.00555  -0.00555   2.06339
   R24        2.06009  -0.00202   0.00000  -0.00576  -0.00576   2.05433
   R25        2.84510  -0.00141   0.00000  -0.00440  -0.00440   2.84069
   R26        2.07443  -0.00276   0.00000  -0.00806  -0.00806   2.06637
   R27        2.06836  -0.00238   0.00000  -0.00688  -0.00688   2.06148
    A1        1.82992   0.00206   0.00000   0.02222   0.02206   1.85198
    A2        1.90145  -0.00009   0.00000   0.00114   0.00114   1.90259
    A3        1.91813  -0.00274   0.00000  -0.02404  -0.02407   1.89406
    A4        1.93133  -0.00018   0.00000   0.00550   0.00552   1.93686
    A5        1.91970  -0.00201   0.00000  -0.01368  -0.01372   1.90598
    A6        1.95886   0.00287   0.00000   0.00936   0.00940   1.96826
    A7        2.00708   0.00174   0.00000   0.00720   0.00665   2.01373
    A8        2.17219  -0.00412   0.00000  -0.01590  -0.01642   2.15577
    A9        2.10371   0.00240   0.00000   0.00986   0.00931   2.11302
   A10        1.95924  -0.00265   0.00000  -0.01334  -0.01330   1.94593
   A11        1.92848   0.00227   0.00000   0.01213   0.01215   1.94063
   A12        1.92474   0.00166   0.00000   0.00907   0.00909   1.93383
   A13        1.87703   0.00054   0.00000   0.00547   0.00551   1.88254
   A14        1.87752   0.00112   0.00000   0.01040   0.01043   1.88795
   A15        1.89466  -0.00306   0.00000  -0.02456  -0.02455   1.87011
   A16        2.06923  -0.00195   0.00000  -0.01341  -0.01343   2.05580
   A17        2.22595  -0.00183   0.00000  -0.00818  -0.00820   2.21775
   A18        1.98788   0.00378   0.00000   0.02177   0.02175   2.00962
   A19        1.91015   0.00236   0.00000   0.01544   0.01539   1.92554
   A20        1.98073  -0.00283   0.00000  -0.01738  -0.01729   1.96343
   A21        1.91731   0.00385   0.00000   0.02271   0.02267   1.93999
   A22        1.87284   0.00045   0.00000   0.00446   0.00452   1.87736
   A23        1.88712  -0.00305   0.00000  -0.01871  -0.01888   1.86824
   A24        1.89308  -0.00097   0.00000  -0.00761  -0.00752   1.88556
   A25        1.89474  -0.00312   0.00000  -0.02536  -0.02535   1.86939
   A26        1.87919   0.00092   0.00000   0.00933   0.00937   1.88856
   A27        1.92503   0.00220   0.00000   0.01233   0.01236   1.93739
   A28        1.87875   0.00092   0.00000   0.00793   0.00797   1.88672
   A29        1.92350   0.00174   0.00000   0.00876   0.00878   1.93228
   A30        1.96061  -0.00276   0.00000  -0.01383  -0.01379   1.94681
   A31        1.99468   0.00148   0.00000   0.00587   0.00585   2.00053
   A32        2.10558   0.00189   0.00000   0.00750   0.00748   2.11305
   A33        2.18288  -0.00336   0.00000  -0.01326  -0.01328   2.16960
   A34        1.92097  -0.00001   0.00000  -0.00101  -0.00100   1.91997
   A35        1.97927  -0.00211   0.00000  -0.00953  -0.00951   1.96976
   A36        1.92169   0.00225   0.00000   0.01138   0.01140   1.93309
   A37        1.86362   0.00194   0.00000   0.01655   0.01656   1.88018
   A38        1.89069  -0.00237   0.00000  -0.02150  -0.02148   1.86921
   A39        1.88472   0.00023   0.00000   0.00333   0.00335   1.88807
   A40        2.06739  -0.00180   0.00000  -0.01219  -0.01259   2.05481
   A41        2.22775  -0.00176   0.00000  -0.00774  -0.00815   2.21960
   A42        1.98790   0.00358   0.00000   0.02076   0.02033   2.00824
   A43        1.94441   0.00331   0.00000   0.01373   0.01377   1.95818
   A44        1.91627  -0.00337   0.00000  -0.02308  -0.02328   1.89300
   A45        1.93094  -0.00168   0.00000  -0.01700  -0.01708   1.91386
   A46        1.88212   0.00136   0.00000   0.02213   0.02225   1.90436
   A47        1.94479  -0.00129   0.00000  -0.00737  -0.00731   1.93748
   A48        1.84177   0.00155   0.00000   0.01192   0.01167   1.85344
    D1        0.64501  -0.00074   0.00000   0.02460   0.02437   0.66938
    D2       -2.47472  -0.00170   0.00000  -0.03654  -0.03637  -2.51109
    D3        2.64808   0.00158   0.00000   0.05502   0.05483   2.70291
    D4       -0.47165   0.00062   0.00000  -0.00612  -0.00591  -0.47756
    D5       -1.48335   0.00090   0.00000   0.04806   0.04787  -1.43547
    D6        1.68011  -0.00005   0.00000  -0.01309  -0.01287   1.66724
    D7        1.04066  -0.00077   0.00000  -0.01196  -0.01187   1.02878
    D8        3.12442   0.00082   0.00000   0.00928   0.00919   3.13361
    D9       -1.13291  -0.00027   0.00000   0.00012   0.00024  -1.13267
   D10       -0.96543  -0.00055   0.00000  -0.01730  -0.01730  -0.98274
   D11        1.11833   0.00104   0.00000   0.00394   0.00376   1.12209
   D12       -3.13900  -0.00005   0.00000  -0.00522  -0.00519   3.13900
   D13       -3.12371  -0.00088   0.00000  -0.02102  -0.02096   3.13851
   D14       -1.03994   0.00072   0.00000   0.00022   0.00010  -1.03985
   D15        0.98591  -0.00038   0.00000  -0.00894  -0.00885   0.97706
   D16       -3.13127  -0.00068   0.00000  -0.04817  -0.04847   3.10345
[...]
                 (A) (A) (A) (A) (A) (A) (A) (A) (A) (A) (A) (A)
                 (A) (A) (A) (A) (A) (A) (A) (A) (A) (A) (A) (A)
                 (A) (A) (A) (A) (A) (A) (A) (A) (A) (A) (A) (A)
                 (A) (A) (A) (A) (A) (A) (A) (A) (A) (A) (A) (A)
                 (A) (A) (A) (A) (A) (A) (A) (A) (A) (A) (A) (A)
                 (A) (A) (A) (A) (A) (A) (A) (A) (A) (A) (A) (A)
                 (A) (A) (A) (A) (A) (A) (A) (A) (A) (A) (A) (A)
                 (A) (A) (A) (A) (A) (A) (A) (A) (A) (A) (A) (A)
                 (A) (A) (A) (A) (A) (A) (A) (A) (A) (A) (A) (A)
                 (A) (A) (A) (A) (A) (A) (A) (A) (A) (A) (A) (A)
                 (A) (A) (A) (A) (A) (A) (A) (A) (A) (A) (A) (A)
                 (A) (A) (A) (A) (A) (A) (A) (A) (A) (A) (A) (A)
                 (A) (A) (A) (A) (A) (A) (A) (A) (A) (A) (A) (A)
                 (A) (A) (A) (A) (A) (A) (A) (A) (A)
 The electronic state is 1-A.
 Alpha  occ. eigenvalues --  -11.23028 -11.22456 -11.21863 -11.21726 -11.21721
 Alpha  occ. eigenvalues --  -11.21541 -11.21497 -11.21449 -11.21393 -11.21358
 Alpha  occ. eigenvalues --   -1.10803  -1.08495  -1.01828  -0.98138  -0.93839
 Alpha  occ. eigenvalues --   -0.91936  -0.86954  -0.82861  -0.70567  -0.69489
 Alpha  occ. eigenvalues --   -0.64754  -0.61539  -0.60720  -0.58828  -0.58414
 Alpha  occ. eigenvalues --   -0.56814  -0.55405  -0.54979  -0.53298  -0.52217
 Alpha  occ. eigenvalues --   -0.51714  -0.51214  -0.50653  -0.50166  -0.47383
 Alpha  occ. eigenvalues --   -0.46917  -0.44458  -0.33328  -0.31563
 Alpha virt. eigenvalues --    0.18100   0.19932   0.22053   0.24536   0.24955
 Alpha virt. eigenvalues --    0.27424   0.28601   0.28877   0.30353   0.30694
 Alpha virt. eigenvalues --    0.31966   0.32601   0.32969   0.33726   0.34466
 Alpha virt. eigenvalues --    0.35524   0.36421   0.37370   0.38662   0.39972
 Alpha virt. eigenvalues --    0.40998   0.42095   0.42777   0.44262   0.45477
 Alpha virt. eigenvalues --    0.51938   0.54227   0.61292   0.62632   0.69521
 Alpha virt. eigenvalues --    0.71676   0.71855   0.74127   0.75627   0.76300
 Alpha virt. eigenvalues --    0.77310   0.78587   0.80192   0.80428   0.82510
 Alpha virt. eigenvalues --    0.83060   0.85963   0.89706   0.90634   0.91906
 Alpha virt. eigenvalues --    0.92727   0.94246   0.96733   0.97890   0.99038
 Alpha virt. eigenvalues --    0.99663   1.01316   1.02330   1.04636   1.06421
 Alpha virt. eigenvalues --    1.06946   1.08561   1.08610   1.11036   1.12563
 Alpha virt. eigenvalues --    1.13528   1.14242   1.14315   1.15516   1.15561
 Alpha virt. eigenvalues --    1.15995   1.16443   1.18511   1.18881   1.20423
 Alpha virt. eigenvalues --    1.21361   1.22874   1.23837   1.26678   1.27279
 Alpha virt. eigenvalues --    1.29587   1.40505   1.41229   1.45131   1.46302
 Alpha virt. eigenvalues --    1.47303   1.54539   1.56916   1.57904   1.58162
 Alpha virt. eigenvalues --    1.61580   1.62900   1.65166   1.67986   1.70099
 Alpha virt. eigenvalues --    1.73688   1.82808   1.91105   1.92024   1.96649
 Alpha virt. eigenvalues --    1.98629   2.01394   2.02264   2.04662   2.08570
 Alpha virt. eigenvalues --    2.09659   2.11023   2.11867   2.13286   2.14333
 Alpha virt. eigenvalues --    2.15615   2.17830   2.19386   2.23464   2.28302
 Alpha virt. eigenvalues --    2.29342   2.30634   2.33018   2.35331   2.35655
 Alpha virt. eigenvalues --    2.35947   2.36091   2.39306   2.40246   2.40800
 Alpha virt. eigenvalues --    2.42218   2.43338   2.43738   2.45452   2.46063
 Alpha virt. eigenvalues --    2.47468   2.49490   2.50160   2.50478   2.53353
 Alpha virt. eigenvalues --    2.56171   2.59443   2.61268   2.62977   2.65059
 Alpha virt. eigenvalues --    2.67062   2.68311   2.71449   2.72617   2.74255
 Alpha virt. eigenvalues --    2.76086   2.77474   2.80595   2.82947   2.83712
 Alpha virt. eigenvalues --    2.86556   2.90534   2.92645   2.94406   2.94575
 Alpha virt. eigenvalues --    2.97681   2.98672   3.01242   3.02716   3.05048
 Alpha virt. eigenvalues --    3.06983   3.08131   3.09712   3.12652   3.17075
 Alpha virt. eigenvalues --    3.17580   3.18813   3.20184   3.20611   3.22304
 Alpha virt. eigenvalues --    3.23445   3.25849   3.26685   3.27777   3.38376
 Alpha virt. eigenvalues --    3.40097   3.45764   3.46979   3.56086   3.58279
 Alpha virt. eigenvalues --    3.59222   3.61997   3.68641   3.74872   3.78914
 Alpha virt. eigenvalues --    3.79698   3.81279   3.82681   3.83341   3.84006
 Alpha virt. eigenvalues --    3.84104   3.86511   3.88184   3.89137   3.91421
 Alpha virt. eigenvalues --    3.97579   4.59401   4.62757   4.74521   4.82179
 Alpha virt. eigenvalues --    4.89167   4.92294   4.93230   5.07407   5.10903
 Alpha virt. eigenvalues --    5.17835
          Condensed to atoms (all electrons):
               1          2          3          4          5          6
     1  C    5.003997   0.412745   0.413411   0.339222  -0.057161   0.003819
     2  H    0.412745   0.584867  -0.028359  -0.045647  -0.004621   0.000114
     3  H    0.413411  -0.028359   0.576310  -0.039654   0.003215  -0.000111
     4  C    0.339222  -0.045647  -0.039654   4.951262   0.352880  -0.042642
     5  C   -0.057161  -0.004621   0.003215   0.352880   4.891657   0.407271
     6  H    0.003819   0.000114  -0.000111  -0.042642   0.407271   0.568320
     7  H   -0.000045  -0.000557  -0.000012  -0.045807   0.400489  -0.027516
     8  H   -0.003571   0.002410  -0.000037  -0.041600   0.397676  -0.026708
     9  C   -0.046576   0.002347  -0.001941   0.696859  -0.046080  -0.002982
    10  H    0.003280  -0.000115   0.000029  -0.037937  -0.006573   0.002347
    11  C   -0.007739   0.000152  -0.002699  -0.049997   0.003357   0.000133
    12  H    0.000295  -0.000013  -0.000067  -0.000357  -0.000097  -0.000005
    13  H   -0.002166   0.000038  -0.001508  -0.000577   0.000102   0.000005
    14  H    0.000167   0.000018   0.000160  -0.000541  -0.000105  -0.000006
    15  C   -0.000102  -0.000045  -0.000001   0.000002  -0.000000   0.000000
    16  H    0.000024  -0.000008  -0.000001  -0.000000   0.000000  -0.000000
    17  H   -0.000005   0.000002   0.000000   0.000000  -0.000000   0.000000
    18  H   -0.000003  -0.000002   0.000002   0.000000  -0.000000  -0.000000
    19  C   -0.004098   0.001256   0.000622  -0.000004   0.000007  -0.000000
    20  C    0.000549   0.000191  -0.000016  -0.000019  -0.000025   0.000000
    21  H    0.000120  -0.000099  -0.000001  -0.000004   0.000001  -0.000000
    22  H   -0.000058   0.000094  -0.000011  -0.000061   0.000096  -0.000001
    23  H   -0.000041   0.000017   0.000000   0.000001  -0.000000   0.000000
    24  C   -0.062090   0.000057  -0.001230   0.006210  -0.000074   0.000002
    25  H   -0.000091   0.000171   0.001049  -0.000105  -0.000002   0.000000
    26  C    0.331129  -0.045729  -0.042384  -0.055684  -0.001011  -0.000108
    27  H   -0.046716   0.004692  -0.002896  -0.001441   0.000280  -0.000004
    28  H   -0.042601  -0.002340   0.004316  -0.002245  -0.000436  -0.000040
               7          8          9         10         11         12
     1  C   -0.000045  -0.003571  -0.046576   0.003280  -0.007739   0.000295
     2  H   -0.000557   0.002410   0.002347  -0.000115   0.000152  -0.000013
     3  H   -0.000012  -0.000037  -0.001941   0.000029  -0.002699  -0.000067
     4  C   -0.045807  -0.041600   0.696859  -0.037937  -0.049997  -0.000357
     5  C    0.400489   0.397676  -0.046080  -0.006573   0.003357  -0.000097
     6  H   -0.027516  -0.026708  -0.002982   0.002347   0.000133  -0.000005
     7  H    0.599593  -0.037732  -0.000883   0.000143  -0.000102   0.000016
     8  H   -0.037732   0.591603  -0.000465   0.000218  -0.000104  -0.000004
     9  C   -0.000883  -0.000465   4.938271   0.404337   0.340912  -0.041711
    10  H    0.000143   0.000218   0.404337   0.559262  -0.041317  -0.001238
    11  C   -0.000102  -0.000104   0.340912  -0.041317   4.898015   0.401889
    12  H    0.000016  -0.000004  -0.041711  -0.001238   0.401889   0.585672
    13  H   -0.000002   0.000001  -0.043875   0.003330   0.409145  -0.029082
    14  H   -0.000004   0.000017  -0.041774  -0.001163   0.401438  -0.035520
    15  C   -0.000000   0.000000  -0.000000   0.000000   0.000000  -0.000000
    16  H    0.000000  -0.000000   0.000000  -0.000000  -0.000000   0.000000
    17  H    0.000000   0.000000  -0.000000   0.000000  -0.000000  -0.000000
    18  H   -0.000000  -0.000000  -0.000000   0.000000  -0.000000  -0.000000
    19  C    0.000021  -0.000001  -0.000003   0.000000   0.000000   0.000000
    20  C   -0.000043  -0.000001  -0.000000  -0.000000  -0.000000  -0.000000
    21  H   -0.000001   0.000000   0.000000  -0.000000   0.000000   0.000000
    22  H    0.000361  -0.000000  -0.000001   0.000000  -0.000000   0.000000
    23  H   -0.000000   0.000000   0.000000   0.000000   0.000000  -0.000000
    24  C   -0.000104   0.000003   0.000036   0.000002  -0.000027  -0.000007
    25  H   -0.000000   0.000000   0.000007  -0.000000  -0.000002  -0.000000
    26  C    0.000669   0.000075  -0.004455  -0.000120   0.000509   0.000149
    27  H   -0.000003   0.000005   0.001236  -0.000038   0.000051  -0.000081
    28  H   -0.000466   0.000058   0.000648   0.000001  -0.000030  -0.000000
              13         14         15         16         17         18
     1  C   -0.002166   0.000167  -0.000102   0.000024  -0.000005  -0.000003
     2  H    0.000038   0.000018  -0.000045  -0.000008   0.000002  -0.000002
     3  H   -0.001508   0.000160  -0.000001  -0.000001   0.000000   0.000002
     4  C   -0.000577  -0.000541   0.000002  -0.000000   0.000000   0.000000
     5  C    0.000102  -0.000105  -0.000000   0.000000  -0.000000  -0.000000
     6  H    0.000005  -0.000006   0.000000  -0.000000   0.000000  -0.000000
     7  H   -0.000002  -0.000004  -0.000000   0.000000   0.000000  -0.000000
     8  H    0.000001   0.000017   0.000000  -0.000000   0.000000  -0.000000
     9  C   -0.043875  -0.041774  -0.000000   0.000000  -0.000000  -0.000000
    10  H    0.003330  -0.001163   0.000000  -0.000000   0.000000   0.000000
    11  C    0.409145   0.401438   0.000000  -0.000000  -0.000000  -0.000000
    12  H   -0.029082  -0.035520  -0.000000   0.000000  -0.000000  -0.000000
    13  H    0.577276  -0.027817  -0.000000  -0.000000   0.000000   0.000000
    14  H   -0.027817   0.584890   0.000000  -0.000000   0.000000  -0.000000
    15  C   -0.000000   0.000000   4.900552   0.398175   0.398829   0.406165
    16  H   -0.000000  -0.000000   0.398175   0.594540  -0.037823  -0.026667
    17  H    0.000000   0.000000   0.398829  -0.037823   0.593696  -0.026546
    18  H    0.000000  -0.000000   0.406165  -0.026667  -0.026546   0.565965
    19  C    0.000001  -0.000000   0.353472  -0.043823  -0.044307  -0.041665
    20  C    0.000000   0.000000  -0.065053  -0.001990  -0.001177   0.003789
    21  H   -0.000000  -0.000000  -0.002670   0.002769  -0.000486  -0.000029
    22  H    0.000000  -0.000000   0.003758  -0.000068  -0.000032  -0.000115
    23  H    0.000000   0.000000  -0.002204  -0.000448   0.002752  -0.000055
    24  C    0.000064   0.000002  -0.044228  -0.000470  -0.001279  -0.002577
    25  H    0.000025  -0.000000  -0.006998   0.000180   0.000188   0.002368
    26  C   -0.000554  -0.000037   0.003136  -0.000071  -0.000128   0.000144
    27  H    0.000016   0.000025  -0.000091  -0.000002   0.000009  -0.000009
    28  H   -0.000004  -0.000000   0.000050  -0.000004   0.000006   0.000007
              19         20         21         22         23         24
     1  C   -0.004098   0.000549   0.000120  -0.000058  -0.000041  -0.062090
     2  H    0.001256   0.000191  -0.000099   0.000094   0.000017   0.000057
     3  H    0.000622  -0.000016  -0.000001  -0.000011   0.000000  -0.001230
     4  C   -0.000004  -0.000019  -0.000004  -0.000061   0.000001   0.006210
     5  C    0.000007  -0.000025   0.000001   0.000096  -0.000000  -0.000074
     6  H   -0.000000   0.000000  -0.000000  -0.000001   0.000000   0.000002
     7  H    0.000021  -0.000043  -0.000001   0.000361  -0.000000  -0.000104
     8  H   -0.000001  -0.000001   0.000000  -0.000000   0.000000   0.000003
     9  C   -0.000003  -0.000000   0.000000  -0.000001   0.000000   0.000036
    10  H    0.000000  -0.000000  -0.000000   0.000000   0.000000   0.000002
    11  C    0.000000  -0.000000   0.000000  -0.000000   0.000000  -0.000027
    12  H    0.000000  -0.000000   0.000000   0.000000  -0.000000  -0.000007
    13  H    0.000001   0.000000  -0.000000   0.000000   0.000000   0.000064
    14  H   -0.000000   0.000000  -0.000000  -0.000000   0.000000   0.000002
    15  C    0.353472  -0.065053  -0.002670   0.003758  -0.002204  -0.044228
    16  H   -0.043823  -0.001990   0.002769  -0.000068  -0.000448  -0.000470
    17  H   -0.044307  -0.001177  -0.000486  -0.000032   0.002752  -0.001279
    18  H   -0.041665   0.003789  -0.000029  -0.000115  -0.000055  -0.002577
    19  C    4.915064   0.350683  -0.043358  -0.037727  -0.043642   0.696285
    20  C    0.350683   4.904567   0.401034   0.406928   0.400306  -0.044156
    21  H   -0.043358   0.401034   0.586876  -0.028092  -0.035758  -0.000024
    22  H   -0.037727   0.406928  -0.028092   0.570628  -0.026774  -0.003150
    23  H   -0.043642   0.400306  -0.035758  -0.026774   0.585123  -0.000377
    24  C    0.696285  -0.044156  -0.000024  -0.003150  -0.000377   4.960934
    25  H   -0.038332   0.003541  -0.000122   0.000051  -0.000120   0.403960
    26  C   -0.049354  -0.007949   0.000348  -0.002567   0.000140   0.340992
    27  H    0.001446   0.000178  -0.000014   0.000062   0.000024  -0.041006
    28  H    0.000417  -0.002567  -0.000063  -0.001998   0.000086  -0.044503
              25         26         27         28
     1  C   -0.000091   0.331129  -0.046716  -0.042601
     2  H    0.000171  -0.045729   0.004692  -0.002340
     3  H    0.001049  -0.042384  -0.002896   0.004316
     4  C   -0.000105  -0.055684  -0.001441  -0.002245
     5  C   -0.000002  -0.001011   0.000280  -0.000436
     6  H    0.000000  -0.000108  -0.000004  -0.000040
     7  H   -0.000000   0.000669  -0.000003  -0.000466
     8  H    0.000000   0.000075   0.000005   0.000058
     9  C    0.000007  -0.004455   0.001236   0.000648
    10  H   -0.000000  -0.000120  -0.000038   0.000001
    11  C   -0.000002   0.000509   0.000051  -0.000030
    12  H   -0.000000   0.000149  -0.000081  -0.000000
    13  H    0.000025  -0.000554   0.000016  -0.000004
    14  H   -0.000000  -0.000037   0.000025  -0.000000
    15  C   -0.006998   0.003136  -0.000091   0.000050
    16  H    0.000180  -0.000071  -0.000002  -0.000004
    17  H    0.000188  -0.000128   0.000009   0.000006
    18  H    0.002368   0.000144  -0.000009   0.000007
    19  C   -0.038332  -0.049354   0.001446   0.000417
    20  C    0.003541  -0.007949   0.000178  -0.002567
    21  H   -0.000122   0.000348  -0.000014  -0.000063
    22  H    0.000051  -0.002567   0.000062  -0.001998
    23  H   -0.000120   0.000140   0.000024   0.000086
    24  C    0.403960   0.340992  -0.041006  -0.044503
    25  H    0.558056  -0.040061  -0.003353   0.003267
    26  C   -0.040061   4.977839   0.413228   0.416251
    27  H   -0.003353   0.413228   0.579538  -0.028540
    28  H    0.003267   0.416251  -0.028540   0.582598
 Mulliken charges:
               1
     1  C   -0.235696
     2  H    0.118365
     3  H    0.121814
     4  C    0.017883
     5  C   -0.340845
     6  H    0.118112
     7  H    0.111985
     8  H    0.118156
     9  C   -0.153908
    10  H    0.115552
    11  C   -0.353585
    12  H    0.120162
    13  H    0.115581
    14  H    0.120250
    15  C   -0.342746
    16  H    0.115688
    17  H    0.116299
    18  H    0.119226
    19  C    0.027041
    20  C   -0.348771
    21  H    0.119572
    22  H    0.118676
    23  H    0.120971
    24  C   -0.163245
    25  H    0.116321
    26  C   -0.234395
    27  H    0.123405
    28  H    0.118132
 Sum of Mulliken charges =  -0.00000
 Mulliken charges with hydrogens summed into heavy atoms:
               1
     1  C    0.004483
     4  C    0.017883
     5  C    0.007409
     9  C   -0.038356
    11  C    0.002408
    15  C    0.008468
    19  C    0.027041
    20  C    0.010448
    24  C   -0.046924
    26  C    0.007142
 Electronic spatial extent (au):  <R**2>=           2498.6166
 Charge=             -0.0000 electrons
 Dipole moment (field-independent basis, Debye):
    X=              0.3626    Y=              0.1699    Z=              0.0498  Tot=              0.4035
 Quadrupole moment (field-independent basis, Debye-Ang):
   XX=            -63.7582   YY=            -63.7112   ZZ=            -67.3994
   XY=              1.0617   XZ=              1.2177   YZ=             -0.3674
 Traceless Quadrupole moment (field-independent basis, Debye-Ang):
   XX=              1.1981   YY=              1.2451   ZZ=             -2.4431
   XY=              1.0617   XZ=              1.2177   YZ=             -0.3674
 Octapole moment (field-independent basis, Debye-Ang**2):
  XXX=              2.8324  YYY=             -2.8562  ZZZ=              0.8775  XYY=             -0.7382
  XXY=              1.7309  XXZ=             -2.8066  XZZ=              1.5462  YZZ=              1.4376
  YYZ=              0.7861  XYZ=             -0.4940
 Hexadecapole moment (field-independent basis, Debye-Ang**3):
 XXXX=          -2633.5340 YYYY=           -638.9544 ZZZZ=           -166.0440 XXXY=             10.5034
 XXXZ=             13.5605 YYYX=             -7.0822 YYYZ=             -1.6738 ZZZX=              4.0399
 ZZZY=              2.3776 XXYY=           -550.6719 XXZZ=           -483.2676 YYZZ=           -131.1157
 XXYZ=             -4.5757 YYXZ=              2.5312 ZZXY=              7.7339
 N-N= 5.156964974568D+02 E-N=-1.936106360896D+03  KE= 3.887456770385D+02
 No NMR shielding tensors so no spin-rotation constants.
 Leave Link  601 at Fri Sep 17 15:25:50 2021, MaxMem=   524288000 cpu:               0.4 elap:               0.7
 (Enter /opt/gaussian/g16_legacy/l9999.exe)
 1\1\GINC-TRUENO91\FOpt\RMP2-FC\6-31G(d,p)\C10H18\JRAMOS\17-Sep-2021\0\
 \#p opt mp2/6-31g(d,p)\\Conformer number 2188. Energy MM = 23.287 kcal
 /mol\\0,1\C,0.4323341193,0.1867603466,-0.8309674404\H,-0.3112521264,0.
 9725011618,-0.9906768847\H,0.2775477823,-0.5462564265,-1.6245837066\C,
 1.8154077491,0.7839678905,-0.8961478328\C,1.9330798653,2.1921843991,-0
 .3788781018\H,2.9669306789,2.5351762257,-0.3825854442\H,1.5553416087,2
 .2675078286,0.643350339\H,1.3413346812,2.8797331626,-0.9871343261\C,2.
 8987693514,0.1149929923,-1.3326946568\H,3.8529492689,0.6343190547,-1.3
 115992713\C,2.9437720499,-1.2897749325,-1.852428847\H,3.6185342255,-1.
 9012816253,-1.2506088776\H,1.9669072858,-1.7674718453,-1.8415029047\H,
 3.3205732989,-1.3150921212,-2.8766444757\C,-3.6594672969,-1.1632736255
 ,1.1157778246\H,-4.3996422649,-0.5442338936,0.6038044502\H,-4.03693832
 77,-1.3374426702,2.1259612605\H,-3.6021581039,-2.1220937911,0.60282627
 75\C,-2.3218740623,-0.477061513,1.1556886499\C,-2.3196505565,0.8541276
 756,1.854818653\H,-3.045150042,1.5243552621,1.3889186772\H,-1.34965146
 98,1.3441863682,1.8328500581\H,-2.6209061849,0.739160137,2.8984227793\
 C,-1.2359876281,-1.0473461486,0.6004311839\H,-1.3734397685,-2.00513460
 95,0.1045993481\C,0.150212883,-0.4792251934,0.5295926076\H,0.881401008
 9,-1.2778579143,0.679273417\H,0.3211219747,0.2447738051,1.3273372436\\
 Version=EM64L-G16RevA.03\State=1-A\HF=-389.1568792\MP2=-390.573553\RMS
 D=2.389e-09\RMSF=3.826e-06\Dipole=-0.0983551,0.0337544,0.0483273\PG=C0
 1 [X(C10H18)]\\@


 IN THE FIGHT BETWEEN YOU AND THE WORLD, BACK THE WORLD

                                        -- FRANZ KAFKA
 Job cpu time:       0 days  1 hours 53 minutes  0.1 seconds.
 Elapsed time:       0 days  1 hours 53 minutes  8.5 seconds.
 File lengths (MBytes):  RWF=     32 Int=      0 D2E=      0 Chk=      7 Scr=      1
 Normal termination of Gaussian 16 at Fri Sep 17 15:25:50 2021.
