 Entering Gaussian System, Link 0=/opt/gaussian/g16_legacy/g16
 Input=01-IsoP_2787_gaussian.com
 Output=01-IsoP_2787_gaussian.log
 Initial command:
 /opt/gaussian/g16_legacy/l1.exe "/scratch-local/jramos/2661376/Gau-6526.inp" -scrdir="/scratch-local/jramos/2661376/"
 Entering Link 1 = /opt/gaussian/g16_legacy/l1.exe PID=      6527.
  
 Copyright (c) 1988,1990,1992,1993,1995,1998,2003,2009,2016,
            Gaussian, Inc.  All Rights Reserved.
  
 This is part of the Gaussian(R) 16 program.  It is based on
 the Gaussian(R) 09 system (copyright 2009, Gaussian, Inc.),
 the Gaussian(R) 03 system (copyright 2003, Gaussian, Inc.),
 the Gaussian(R) 98 system (copyright 1998, Gaussian, Inc.),
 the Gaussian(R) 94 system (copyright 1995, Gaussian, Inc.),
 the Gaussian 92(TM) system (copyright 1992, Gaussian, Inc.),
 the Gaussian 90(TM) system (copyright 1990, Gaussian, Inc.),
 the Gaussian 88(TM) system (copyright 1988, Gaussian, Inc.),
 the Gaussian 86(TM) system (copyright 1986, Carnegie Mellon
 University), and the Gaussian 82(TM) system (copyright 1983,
 Carnegie Mellon University). Gaussian is a federally registered
 trademark of Gaussian, Inc.
  
 This software contains proprietary and confidential information,
 including trade secrets, belonging to Gaussian, Inc.
  
 This software is provided under written license and may be
 used, copied, transmitted, or stored only in accord with that
 written license.
  
 The following legend is applicable only to US Government
 contracts under FAR:
  
                    RESTRICTED RIGHTS LEGEND
  
 Use, reproduction and disclosure by the US Government is
 subject to restrictions as set forth in subparagraphs (a)
 and (c) of the Commercial Computer Software - Restricted
 Rights clause in FAR 52.227-19.
  
 Gaussian, Inc.
 340 Quinnipiac St., Bldg. 40, Wallingford CT 06492
  
  
 ---------------------------------------------------------------
 Warning -- This program may not be used in any manner that
 competes with the business of Gaussian, Inc. or will provide
 assistance to any competitor of Gaussian, Inc.  The licensee
 of this program is prohibited from giving any competitor of
 Gaussian, Inc. access to this program.  By using this program,
 the user acknowledges that Gaussian, Inc. is engaged in the
 business of creating and licensing software in the field of
 computational chemistry and represents and warrants to the
 licensee that it is not a competitor of Gaussian, Inc. and that
 it will not use this program in any manner prohibited above.
 ---------------------------------------------------------------
  

 Cite this work as:
 Gaussian 16, Revision A.03,
 M. J. Frisch, G. W. Trucks, H. B. Schlegel, G. E. Scuseria, 
 M. A. Robb, J. R. Cheeseman, G. Scalmani, V. Barone, 
 G. A. Petersson, H. Nakatsuji, X. Li, M. Caricato, A. V. Marenich, 
 J. Bloino, B. G. Janesko, R. Gomperts, B. Mennucci, H. P. Hratchian, 
 J. V. Ortiz, A. F. Izmaylov, J. L. Sonnenberg, D. Williams-Young, 
 F. Ding, F. Lipparini, F. Egidi, J. Goings, B. Peng, A. Petrone, 
 T. Henderson, D. Ranasinghe, V. G. Zakrzewski, J. Gao, N. Rega, 
 G. Zheng, W. Liang, M. Hada, M. Ehara, K. Toyota, R. Fukuda, 
 J. Hasegawa, M. Ishida, T. Nakajima, Y. Honda, O. Kitao, H. Nakai, 
 T. Vreven, K. Throssell, J. A. Montgomery, Jr., J. E. Peralta, 
 F. Ogliaro, M. J. Bearpark, J. J. Heyd, E. N. Brothers, K. N. Kudin, 
 V. N. Staroverov, T. A. Keith, R. Kobayashi, J. Normand, 
 K. Raghavachari, A. P. Rendell, J. C. Burant, S. S. Iyengar, 
 J. Tomasi, M. Cossi, J. M. Millam, M. Klene, C. Adamo, R. Cammi, 
 J. W. Ochterski, R. L. Martin, K. Morokuma, O. Farkas, 
 J. B. Foresman, and D. J. Fox, Gaussian, Inc., Wallingford CT, 2016.
 
 ******************************************
 Gaussian 16:  EM64L-G16RevA.03 25-Dec-2016
                17-Sep-2021 
 ******************************************
 %chk=01-IsoP_2787_gaussian.chk
 %nproc=1
 Will use up to    1 processors via shared memory.
 %mem=4000Mb
 ---------------------
 #p opt mp2/6-31g(d,p)
 ---------------------
 1/18=20,19=15,38=1/1,3;
 2/9=110,12=2,17=6,18=5,40=1/2;
 3/5=1,6=6,7=101,11=9,25=1,30=1,71=1/1,2,3;
 4//1;
 5/5=2,38=5/2;
 8/6=4,10=2/1;
 9/15=2,16=-3/6;
 10/5=1/2;
 6/7=2,8=2,9=2,10=2/1;
 7/12=2/1,2,3,16;
 1/18=20,19=15/3(2);
 2/9=110/2;
 99//99;
 2/9=110/2;
 3/5=1,6=6,7=101,11=9,25=1,30=1,71=1/1,2,3;
 4/5=5,16=3,69=1/1;
 5/5=2,38=5/2;
 8/6=4,10=2/1;
 9/15=2,16=-3/6;
 10/5=1/2;
 7/12=2/1,2,3,16;
 1/18=20,19=15/3(-8);
 2/9=110/2;
 6/7=2,8=2,9=2,10=2/1;
 99//99;
 Leave Link    1 at Fri Sep 17 14:50:12 2021, MaxMem=   524288000 cpu:               0.0 elap:               0.1
 (Enter /opt/gaussian/g16_legacy/l101.exe)
 --------------------------------------------------
 Conformer number 2787. Energy MM = 23.242 kcal/mol
 --------------------------------------------------
 Symbolic Z-matrix:
 Charge =  0 Multiplicity = 1
 C                     0.4534    0.7062    0.8285 
 H                    -0.5793    1.0283    0.6491 
 H                     0.5313    0.6051    1.9194 
 C                     1.4305    1.7646    0.3599 
 C                     2.7417    1.7969    1.1025 
 H                     3.4081    2.5839    0.7337 
 H                     2.57      1.9815    2.168 
 H                     3.2666    0.8426    0.9942 
 C                     1.18      2.6483   -0.6265 
 H                     1.9435    3.3859   -0.8721 
 C                    -0.0477    2.74     -1.4765 
 H                    -0.5784    3.6728   -1.2633 
 H                    -0.7403    1.9077   -1.3332 
 H                     0.2401    2.7457   -2.5328 
 C                    -2.2073   -3.2413    0.6221 
 H                    -1.8274   -3.56      1.5986 
 H                    -2.2382   -4.1233   -0.026 
 H                    -3.2302   -2.8782    0.7658 
 C                    -1.3544   -2.1672   -0.0011 
 C                    -1.832    -1.7026   -1.3493 
 H                    -1.2856   -0.8363   -1.7289 
 H                    -2.8868   -1.4122   -1.2946 
 H                    -1.735    -2.5106   -2.0818 
 C                    -0.2721   -1.6891    0.6435 
 H                    -0.0345   -2.0915    1.6284 
 C                     0.7015   -0.6485    0.1575 
 H                     0.6688   -0.5455   -0.9321 
 H                     1.7138   -1.0035    0.3889 
 
 ITRead=  0  0  0  0  0  0  0  0  0  0  0  0  0  0  0  0  0  0  0  0
 ITRead=  0  0  0  0  0  0  0  0
 MicOpt= -1 -1 -1 -1 -1 -1 -1 -1 -1 -1 -1 -1 -1 -1 -1 -1 -1 -1 -1 -1
 MicOpt= -1 -1 -1 -1 -1 -1 -1 -1
 NAtoms=     28 NQM=       28 NQMF=       0 NMMI=      0 NMMIF=      0
                NMic=       0 NMicF=      0.
                    Isotopes and Nuclear Properties:
 (Nuclear quadrupole moments (NQMom) in fm**2, nuclear magnetic moments (NMagM)
  in nuclear magnetons)

  Atom         1           2           3           4           5           6           7           8           9          10
 IAtWgt=          12           1           1          12          12           1           1           1          12           1
 AtmWgt=  12.0000000   1.0078250   1.0078250  12.0000000  12.0000000   1.0078250   1.0078250   1.0078250  12.0000000   1.0078250
 NucSpn=           0           1           1           0           0           1           1           1           0           1
 AtZEff=  -0.0000000  -0.0000000  -0.0000000  -0.0000000  -0.0000000  -0.0000000  -0.0000000  -0.0000000  -0.0000000  -0.0000000
 NQMom=    0.0000000   0.0000000   0.0000000   0.0000000   0.0000000   0.0000000   0.0000000   0.0000000   0.0000000   0.0000000
 NMagM=    0.0000000   2.7928460   2.7928460   0.0000000   0.0000000   2.7928460   2.7928460   2.7928460   0.0000000   2.7928460
 AtZNuc=   6.0000000   1.0000000   1.0000000   6.0000000   6.0000000   1.0000000   1.0000000   1.0000000   6.0000000   1.0000000

  Atom        11          12          13          14          15          16          17          18          19          20
 IAtWgt=          12           1           1           1          12           1           1           1          12          12
 AtmWgt=  12.0000000   1.0078250   1.0078250   1.0078250  12.0000000   1.0078250   1.0078250   1.0078250  12.0000000  12.0000000
 NucSpn=           0           1           1           1           0           1           1           1           0           0
 AtZEff=  -0.0000000  -0.0000000  -0.0000000  -0.0000000  -0.0000000  -0.0000000  -0.0000000  -0.0000000  -0.0000000  -0.0000000
 NQMom=    0.0000000   0.0000000   0.0000000   0.0000000   0.0000000   0.0000000   0.0000000   0.0000000   0.0000000   0.0000000
 NMagM=    0.0000000   2.7928460   2.7928460   2.7928460   0.0000000   2.7928460   2.7928460   2.7928460   0.0000000   0.0000000
 AtZNuc=   6.0000000   1.0000000   1.0000000   1.0000000   6.0000000   1.0000000   1.0000000   1.0000000   6.0000000   6.0000000

  Atom        21          22          23          24          25          26          27          28
 IAtWgt=           1           1           1          12           1          12           1           1
 AtmWgt=   1.0078250   1.0078250   1.0078250  12.0000000   1.0078250  12.0000000   1.0078250   1.0078250
 NucSpn=           1           1           1           0           1           0           1           1
 AtZEff=  -0.0000000  -0.0000000  -0.0000000  -0.0000000  -0.0000000  -0.0000000  -0.0000000  -0.0000000
 NQMom=    0.0000000   0.0000000   0.0000000   0.0000000   0.0000000   0.0000000   0.0000000   0.0000000
 NMagM=    2.7928460   2.7928460   2.7928460   0.0000000   2.7928460   0.0000000   2.7928460   2.7928460
 AtZNuc=   1.0000000   1.0000000   1.0000000   6.0000000   1.0000000   6.0000000   1.0000000   1.0000000
 Leave Link  101 at Fri Sep 17 14:50:13 2021, MaxMem=   524288000 cpu:               0.2 elap:               0.3
 (Enter /opt/gaussian/g16_legacy/l103.exe)

 GradGradGradGradGradGradGradGradGradGradGradGradGradGradGradGradGradGrad
 Berny optimization.
 Initialization pass.
                           ----------------------------
                           !    Initial Parameters    !
                           ! (Angstroms and Degrees)  !
 --------------------------                            --------------------------
 ! Name  Definition              Value          Derivative Info.                !
 --------------------------------------------------------------------------------
 ! R1    R(1,2)                  1.0965         estimate D2E/DX2                !
 ! R2    R(1,3)                  1.0983         estimate D2E/DX2                !
 ! R3    R(1,4)                  1.5148         estimate D2E/DX2                !
 ! R4    R(1,26)                 1.532          estimate D2E/DX2                !
 ! R5    R(4,5)                  1.5072         estimate D2E/DX2                !
 ! R6    R(4,9)                  1.3478         estimate D2E/DX2                !
 ! R7    R(5,6)                  1.0952         estimate D2E/DX2                !
 ! R8    R(5,7)                  1.0949         estimate D2E/DX2                !
 ! R9    R(5,8)                  1.0945         estimate D2E/DX2                !
 ! R10   R(9,10)                 1.0896         estimate D2E/DX2                !
 ! R11   R(9,11)                 1.496          estimate D2E/DX2                !
 ! R12   R(11,12)                1.0942         estimate D2E/DX2                !
 ! R13   R(11,13)                1.0922         estimate D2E/DX2                !
 ! R14   R(11,14)                1.0948         estimate D2E/DX2                !
 ! R15   R(15,16)                1.0952         estimate D2E/DX2                !
 ! R16   R(15,17)                1.0949         estimate D2E/DX2                !
 ! R17   R(15,18)                1.0949         estimate D2E/DX2                !
 ! R18   R(15,19)                1.5065         estimate D2E/DX2                !
 ! R19   R(19,20)                1.5039         estimate D2E/DX2                !
 ! R20   R(19,24)                1.3474         estimate D2E/DX2                !
 ! R21   R(20,21)                1.0923         estimate D2E/DX2                !
 ! R22   R(20,22)                1.0954         estimate D2E/DX2                !
 ! R23   R(20,23)                1.0949         estimate D2E/DX2                !
 ! R24   R(24,25)                1.0901         estimate D2E/DX2                !
 ! R25   R(24,26)                1.5056         estimate D2E/DX2                !
 ! R26   R(26,27)                1.0949         estimate D2E/DX2                !
 ! R27   R(26,28)                1.0974         estimate D2E/DX2                !
 ! A1    A(2,1,3)              104.8525         estimate D2E/DX2                !
 ! A2    A(2,1,4)              110.5876         estimate D2E/DX2                !
 ! A3    A(2,1,26)             109.9139         estimate D2E/DX2                !
 ! A4    A(3,1,4)              109.0155         estimate D2E/DX2                !
 ! A5    A(3,1,26)             110.0075         estimate D2E/DX2                !
 ! A6    A(4,1,26)             112.2038         estimate D2E/DX2                !
 ! A7    A(1,4,5)              115.0691         estimate D2E/DX2                !
 ! A8    A(1,4,9)              124.3763         estimate D2E/DX2                !
 ! A9    A(5,4,9)              120.5442         estimate D2E/DX2                !
 ! A10   A(4,5,6)              112.2608         estimate D2E/DX2                !
 ! A11   A(4,5,7)              110.2824         estimate D2E/DX2                !
 ! A12   A(4,5,8)              110.4731         estimate D2E/DX2                !
 ! A13   A(6,5,7)              107.5753         estimate D2E/DX2                !
 ! A14   A(6,5,8)              107.5422         estimate D2E/DX2                !
 ! A15   A(7,5,8)              108.572          estimate D2E/DX2                !
 ! A16   A(4,9,10)             118.5907         estimate D2E/DX2                !
 ! A17   A(4,9,11)             127.4818         estimate D2E/DX2                !
 ! A18   A(10,9,11)            113.9197         estimate D2E/DX2                !
 ! A19   A(9,11,12)            109.8509         estimate D2E/DX2                !
 ! A20   A(9,11,13)            113.5235         estimate D2E/DX2                !
 ! A21   A(9,11,14)            109.437          estimate D2E/DX2                !
 ! A22   A(12,11,13)           108.452          estimate D2E/DX2                !
 ! A23   A(12,11,14)           108.1229         estimate D2E/DX2                !
 ! A24   A(13,11,14)           107.2922         estimate D2E/DX2                !
 ! A25   A(16,15,17)           107.6461         estimate D2E/DX2                !
 ! A26   A(16,15,18)           107.671          estimate D2E/DX2                !
 ! A27   A(16,15,19)           112.3297         estimate D2E/DX2                !
 ! A28   A(17,15,18)           108.5692         estimate D2E/DX2                !
 ! A29   A(17,15,19)           110.2087         estimate D2E/DX2                !
 ! A30   A(18,15,19)           110.2897         estimate D2E/DX2                !
 ! A31   A(15,19,20)           114.2882         estimate D2E/DX2                !
 ! A32   A(15,19,24)           120.6538         estimate D2E/DX2                !
 ! A33   A(20,19,24)           125.0552         estimate D2E/DX2                !
 ! A34   A(19,20,21)           113.4348         estimate D2E/DX2                !
 ! A35   A(19,20,22)           110.0563         estimate D2E/DX2                !
 ! A36   A(19,20,23)           110.0987         estimate D2E/DX2                !
 ! A37   A(21,20,22)           106.785          estimate D2E/DX2                !
 ! A38   A(21,20,23)           107.9666         estimate D2E/DX2                !
 ! A39   A(22,20,23)           108.3217         estimate D2E/DX2                !
 ! A40   A(19,24,25)           118.445          estimate D2E/DX2                !
 ! A41   A(19,24,26)           127.6062         estimate D2E/DX2                !
 ! A42   A(25,24,26)           113.9416         estimate D2E/DX2                !
 ! A43   A(1,26,24)            111.4109         estimate D2E/DX2                !
 ! A44   A(1,26,27)            110.3549         estimate D2E/DX2                !
 ! A45   A(1,26,28)            110.0647         estimate D2E/DX2                !
 ! A46   A(24,26,27)           111.5254         estimate D2E/DX2                !
 ! A47   A(24,26,28)           107.749          estimate D2E/DX2                !
 ! A48   A(27,26,28)           105.5338         estimate D2E/DX2                !
 ! D1    D(2,1,4,5)            151.4177         estimate D2E/DX2                !
 ! D2    D(2,1,4,9)            -27.4095         estimate D2E/DX2                !
 ! D3    D(3,1,4,5)             36.6415         estimate D2E/DX2                !
 ! D4    D(3,1,4,9)           -142.1858         estimate D2E/DX2                !
 ! D5    D(26,1,4,5)           -85.4683         estimate D2E/DX2                !
 ! D6    D(26,1,4,9)            95.7044         estimate D2E/DX2                !
 ! D7    D(2,1,26,24)          -56.9397         estimate D2E/DX2                !
 ! D8    D(2,1,26,27)           67.5207         estimate D2E/DX2                !
 ! D9    D(2,1,26,28)         -176.4003         estimate D2E/DX2                !
 ! D10   D(3,1,26,24)           58.0245         estimate D2E/DX2                !
 ! D11   D(3,1,26,27)         -177.515          estimate D2E/DX2                !
 ! D12   D(3,1,26,28)          -61.4361         estimate D2E/DX2                !
 ! D13   D(4,1,26,24)          179.568          estimate D2E/DX2                !
 ! D14   D(4,1,26,27)          -55.9715         estimate D2E/DX2                !
 ! D15   D(4,1,26,28)           60.1074         estimate D2E/DX2                !
 ! D16   D(1,4,5,6)           -179.4377         estimate D2E/DX2                !
 ! D17   D(1,4,5,7)            -59.4961         estimate D2E/DX2                !
 ! D18   D(1,4,5,8)             60.5316         estimate D2E/DX2                !
 ! D19   D(9,4,5,6)             -0.5616         estimate D2E/DX2                !
 ! D20   D(9,4,5,7)            119.3801         estimate D2E/DX2                !
 ! D21   D(9,4,5,8)           -120.5923         estimate D2E/DX2                !
 ! D22   D(1,4,9,10)           178.6005         estimate D2E/DX2                !
 ! D23   D(1,4,9,11)            -2.4875         estimate D2E/DX2                !
 ! D24   D(5,4,9,10)            -0.1661         estimate D2E/DX2                !
 ! D25   D(5,4,9,11)           178.7459         estimate D2E/DX2                !
 ! D26   D(4,9,11,12)          113.6871         estimate D2E/DX2                !
 ! D27   D(4,9,11,13)           -7.9245         estimate D2E/DX2                !
 ! D28   D(4,9,11,14)         -127.7519         estimate D2E/DX2                !
 ! D29   D(10,9,11,12)         -67.358          estimate D2E/DX2                !
 ! D30   D(10,9,11,13)         171.0304         estimate D2E/DX2                !
 ! D31   D(10,9,11,14)          51.203          estimate D2E/DX2                !
 ! D32   D(16,15,19,20)        179.628          estimate D2E/DX2                !
 ! D33   D(16,15,19,24)         -0.9524         estimate D2E/DX2                !
 ! D34   D(17,15,19,20)         59.6015         estimate D2E/DX2                !
 ! D35   D(17,15,19,24)       -120.9789         estimate D2E/DX2                !
 ! D36   D(18,15,19,20)        -60.2582         estimate D2E/DX2                !
 ! D37   D(18,15,19,24)        119.1614         estimate D2E/DX2                !
 ! D38   D(15,19,20,21)        172.3418         estimate D2E/DX2                !
 ! D39   D(15,19,20,22)         52.7833         estimate D2E/DX2                !
 ! D40   D(15,19,20,23)        -66.5532         estimate D2E/DX2                !
 ! D41   D(24,19,20,21)         -7.0482         estimate D2E/DX2                !
 ! D42   D(24,19,20,22)       -126.6067         estimate D2E/DX2                !
 ! D43   D(24,19,20,23)        114.0567         estimate D2E/DX2                !
 ! D44   D(15,19,24,25)         -0.5267         estimate D2E/DX2                !
 ! D45   D(15,19,24,26)        178.432          estimate D2E/DX2                !
 ! D46   D(20,19,24,25)        178.827          estimate D2E/DX2                !
 ! D47   D(20,19,24,26)         -2.2143         estimate D2E/DX2                !
 ! D48   D(19,24,26,1)         103.3625         estimate D2E/DX2                !
 ! D49   D(19,24,26,27)        -20.4371         estimate D2E/DX2                !
 ! D50   D(19,24,26,28)       -135.8109         estimate D2E/DX2                !
 ! D51   D(25,24,26,1)         -77.6393         estimate D2E/DX2                !
 ! D52   D(25,24,26,27)        158.561          estimate D2E/DX2                !
 ! D53   D(25,24,26,28)         43.1872         estimate D2E/DX2                !
 --------------------------------------------------------------------------------
 Trust Radius=3.00D-01 FncErr=1.00D-07 GrdErr=1.00D-07 EigMax=2.50D+02 EigMin=1.00D-04
 Number of steps in this run=    138 maximum allowed number of steps=    168.
 GradGradGradGradGradGradGradGradGradGradGradGradGradGradGradGradGradGrad

 Leave Link  103 at Fri Sep 17 14:50:13 2021, MaxMem=   524288000 cpu:               0.0 elap:               0.0
 (Enter /opt/gaussian/g16_legacy/l202.exe)
                          Input orientation:                          
 ---------------------------------------------------------------------
 Center     Atomic      Atomic             Coordinates (Angstroms)
 Number     Number       Type             X           Y           Z
 ---------------------------------------------------------------------
      1          6           0        0.453400    0.706200    0.828500
      2          1           0       -0.579300    1.028300    0.649100
      3          1           0        0.531300    0.605100    1.919400
      4          6           0        1.430500    1.764600    0.359900
      5          6           0        2.741700    1.796900    1.102500
      6          1           0        3.408100    2.583900    0.733700
      7          1           0        2.570000    1.981500    2.168000
      8          1           0        3.266600    0.842600    0.994200
      9          6           0        1.180000    2.648300   -0.626500
     10          1           0        1.943500    3.385900   -0.872100
     11          6           0       -0.047700    2.740000   -1.476500
     12          1           0       -0.578400    3.672800   -1.263300
     13          1           0       -0.740300    1.907700   -1.333200
     14          1           0        0.240100    2.745700   -2.532800
     15          6           0       -2.207300   -3.241300    0.622100
     16          1           0       -1.827400   -3.560000    1.598600
     17          1           0       -2.238200   -4.123300   -0.026000
     18          1           0       -3.230200   -2.878200    0.765800
     19          6           0       -1.354400   -2.167200   -0.001100
     20          6           0       -1.832000   -1.702600   -1.349300
     21          1           0       -1.285600   -0.836300   -1.728900
     22          1           0       -2.886800   -1.412200   -1.294600
     23          1           0       -1.735000   -2.510600   -2.081800
     24          6           0       -0.272100   -1.689100    0.643500
     25          1           0       -0.034500   -2.091500    1.628400
     26          6           0        0.701500   -0.648500    0.157500
     27          1           0        0.668800   -0.545500   -0.932100
     28          1           0        1.713800   -1.003500    0.388900
 ---------------------------------------------------------------------
                    Distance matrix (angstroms):
                    1          2          3          4          5
     1  C    0.000000
     2  H    1.096541   0.000000
     3  H    1.098341   1.739596   0.000000
     4  C    1.514768   2.159877   2.141271   0.000000
     5  C    2.549710   3.438802   2.640754   1.507230   0.000000
     6  H    3.502142   4.280935   3.687480   2.172989   1.095204
     7  H    2.810809   3.624050   2.472363   2.148193   1.094919
     8  H    2.821375   3.865815   2.897286   2.150275   1.094503
     9  C    2.533126   2.710478   3.328225   1.347836   2.480570
    10  H    3.506170   3.773175   4.185646   2.099906   2.657271
    11  C    3.114558   2.780412   4.052799   2.551244   3.914260
    12  H    3.773719   3.263534   4.557609   3.211181   4.487658
    13  H    2.746173   2.174576   3.727350   2.756708   4.250792
    14  H    3.937435   3.707474   4.948641   3.278311   4.513716
    15  C    4.764943   4.569529   4.896704   6.193656   7.078619
    16  H    4.898527   4.848897   4.797336   6.363934   7.058269
    17  H    5.594547   5.454053   5.814850   6.948068   7.818036
    18  H    5.140113   4.722460   5.254812   6.591090   7.591674
    19  C    3.494682   3.351829   3.863914   4.831671   5.806036
    20  C    3.970917   3.608417   4.647049   5.058334   6.259118
    21  H    3.455969   3.103301   4.323061   4.301740   5.582984
    22  H    4.489110   3.880537   5.107123   5.609680   6.908287
    23  H    4.858677   4.617063   5.554575   5.853172   6.981058
    24  C    2.509589   2.734715   2.745310   3.861000   4.630968
    25  H    2.950426   3.314964   2.770643   4.315649   4.806611
    26  C    1.531994   2.166513   2.169049   2.528924   3.321961
    27  H    2.170913   2.556324   3.077960   2.754272   3.731400
    28  H    2.169085   3.074772   2.515617   2.782710   3.067253
                    6          7          8          9         10
     6  H    0.000000
     7  H    1.767064   0.000000
     8  H    1.766354   1.777681   0.000000
     9  C    2.611268   3.191544   3.200175   0.000000
    10  H    2.316646   3.406912   3.420825   1.089635   0.000000
    11  C    4.105107   4.550830   4.548524   1.496047   2.178845
    12  H    4.589760   4.954466   5.281133   2.132390   2.568137
    13  H    4.683860   4.818914   4.754627   2.176112   3.098463
    14  H    4.553287   5.301882   5.022073   2.127646   2.463606
    15  C    8.091856   7.245001   6.839611   6.907980   7.961253
    16  H    8.118252   7.097152   6.759957   7.248346   8.280675
    17  H    8.800249   8.074714   7.483568   7.609156   8.636584
    18  H    8.596662   7.695789   7.490322   7.206287   8.287873
    19  C    6.767148   6.108815   5.603852   5.477531   6.517032
    20  C    7.083193   6.732132   6.161636   5.340872   6.354129
    21  H    6.308168   6.163723   5.563857   4.408731   5.384066
    22  H    7.727133   7.299552   6.941690   5.785575   6.821442
    23  H    7.767396   7.534772   6.761784   6.101588   7.054321
    24  C    5.640083   4.886199   4.365191   4.747055   5.741215
    25  H    5.874636   4.864557   4.461885   5.387512   6.337736
    26  C    4.255126   3.801355   3.082723   3.422354   4.345000
    27  H    4.480156   4.428421   3.519378   3.248858   4.133324
    28  H    3.982333   3.578897   2.487099   3.827744   4.572714
                   11         12         13         14         15
    11  C    0.000000
    12  H    1.094172   0.000000
    13  H    1.092224   1.773887   0.000000
    14  H    1.094820   1.772311   1.761383   0.000000
    15  C    6.696562   7.349342   5.699780   7.196341   0.000000
    16  H    7.232812   7.878062   6.298649   7.816961   1.095192
    17  H    7.348954   8.066289   6.350231   7.720698   1.094949
    18  H    6.835231   7.352883   5.788803   7.385932   1.094904
    19  C    5.288183   6.025025   4.330868   5.752262   1.506488
    20  C    4.789217   5.520311   3.771781   5.047935   2.528807
    21  H    3.792891   4.587908   2.825503   3.975518   3.487228
    22  H    5.033323   5.584525   3.953567   5.347782   2.735154
    23  H    5.548168   6.343666   4.590338   5.633215   2.840434
    24  C    4.915453   5.699094   4.130802   5.478931   2.480883
    25  H    5.743167   6.471855   5.026214   6.386665   2.656264
    26  C    3.835777   4.725511   3.291676   4.355594   3.924230
    27  H    3.406502   4.411265   2.857382   3.684837   4.237314
    28  H    4.538325   5.463673   4.178914   4.976407   4.520747
                   16         17         18         19         20
    16  H    0.000000
    17  H    1.767877   0.000000
    18  H    1.768122   1.778000   0.000000
    19  C    2.173168   2.146637   2.147622   0.000000
    20  C    3.484260   2.788532   2.794753   1.503861   0.000000
    21  H    4.334091   3.822523   3.764884   2.182045   1.092303
    22  H    3.755793   3.062693   2.551926   2.142759   1.095412
    23  H    3.828201   2.660888   3.237218   2.142917   1.094911
    24  C    2.613703   3.199861   3.190497   1.347391   2.530755
    25  H    2.317730   3.423674   3.402275   2.098365   3.499850
    26  C    4.116909   4.555189   4.560686   2.560923   3.130526
    27  H    4.660758   4.698119   4.850418   2.754997   2.786922
    28  H    4.532015   5.052088   5.300914   3.304565   4.010334
                   21         22         23         24         25
    21  H    0.000000
    22  H    1.756166   0.000000
    23  H    1.769118   1.775615   0.000000
    24  C    2.717118   3.266429   3.200344   0.000000
    25  H    3.796346   4.140168   4.102795   1.090141   0.000000
    26  C    2.746332   3.945596   3.797159   1.505637   2.188034
    27  H    2.130524   3.677617   3.310843   2.162320   3.072606
    28  H    3.675518   4.915967   4.502214   2.116286   2.403468
                   26         27         28
    26  C    0.000000
    27  H    1.094946   0.000000
    28  H    1.097416   1.745517   0.000000
 Stoichiometry    C10H18
 Framework group  C1[X(C10H18)]
 Deg. of freedom    78
 Full point group                 C1      NOp   1
 Largest Abelian subgroup         C1      NOp   1
 Largest concise Abelian subgroup C1      NOp   1
                         Standard orientation:                         
 ---------------------------------------------------------------------
 Center     Atomic      Atomic             Coordinates (Angstroms)
 Number     Number       Type             X           Y           Z
 ---------------------------------------------------------------------
      1          6           0        0.793805   -0.586473    0.589226
      2          1           0        0.484637    0.235325    1.246087
      3          1           0        0.745976   -1.484331    1.220032
      4          6           0        2.220859   -0.386940    0.122081
      5          6           0        2.975652   -1.655000   -0.184603
      6          1           0        4.003283   -1.458198   -0.508199
      7          1           0        3.025288   -2.291694    0.704782
      8          1           0        2.478762   -2.212231   -0.984936
      9          6           0        2.820251    0.813927   -0.001638
     10          1           0        3.860367    0.846746   -0.324727
     11          6           0        2.215693    2.161809    0.234754
     12          1           0        2.690787    2.635724    1.098989
     13          1           0        1.137422    2.131964    0.406200
     14          1           0        2.388677    2.797167   -0.639905
     15          6           0       -3.965118   -0.407923    0.429687
     16          1           0       -4.023684   -1.466122    0.705787
     17          1           0       -4.709103   -0.227479   -0.353153
     18          1           0       -4.237059    0.181211    1.311609
     19          6           0       -2.593423   -0.018241   -0.056222
     20          6           0       -2.465952    1.425880   -0.456053
     21          1           0       -1.439602    1.725954   -0.678959
     22          1           0       -2.815382    2.072751    0.355972
     23          1           0       -3.076486    1.626131   -1.342606
     24          6           0       -1.596359   -0.923574   -0.097443
     25          1           0       -1.803941   -1.940203    0.236893
     26          6           0       -0.185898   -0.715574   -0.581466
     27          1           0       -0.111230    0.157078   -1.238589
     28          1           0        0.084227   -1.577141   -1.205211
 ---------------------------------------------------------------------
 Rotational constants (GHZ):           2.2181701           0.5802313           0.4854266
 Leave Link  202 at Fri Sep 17 14:50:13 2021, MaxMem=   524288000 cpu:               0.0 elap:               0.0
 (Enter /opt/gaussian/g16_legacy/l301.exe)
 Standard basis: 6-31G(d,p) (6D, 7F)
 Ernie: Thresh=  0.10000D-02 Tol=  0.10000D-05 Strict=F.
 There are   240 symmetry adapted cartesian basis functions of A   symmetry.
 There are   240 symmetry adapted basis functions of A   symmetry.
   240 basis functions,   406 primitive gaussians,   240 cartesian basis functions
    39 alpha electrons       39 beta electrons
       nuclear repulsion energy       516.4360275897 Hartrees.
 IExCor=    0 DFT=F Ex=HF Corr=None ExCW=0 ScaHFX=  1.000000
 ScaDFX=  1.000000  1.000000  1.000000  1.000000 ScalE2=  1.000000  1.000000
 IRadAn=      5 IRanWt=     -1 IRanGd=            0 ICorTp=0 IEmpDi=  4
 NAtoms=   28 NActive=   28 NUniq=   28 SFac= 1.00D+00 NAtFMM=   60 NAOKFM=F Big=F
 Integral buffers will be    131072 words long.
 Raffenetti 1 integral format.
 Two-electron integral symmetry is turned on.
 Leave Link  301 at Fri Sep 17 14:50:13 2021, MaxMem=   524288000 cpu:               0.1 elap:               0.1
 (Enter /opt/gaussian/g16_legacy/l302.exe)
 NPDir=0 NMtPBC=     1 NCelOv=     1 NCel=       1 NClECP=     1 NCelD=      1
         NCelK=      1 NCelE2=     1 NClLst=     1 CellRange=     0.0.
 One-electron integrals computed using PRISM.
 One-electron integral symmetry used in STVInt
 NBasis=   240 RedAO= T EigKep=  2.10D-03  NBF=   240
 NBsUse=   240 1.00D-06 EigRej= -1.00D+00 NBFU=   240
 Leave Link  302 at Fri Sep 17 14:50:13 2021, MaxMem=   524288000 cpu:               0.3 elap:               0.4
 (Enter /opt/gaussian/g16_legacy/l303.exe)
 DipDrv:  MaxL=1.
 Leave Link  303 at Fri Sep 17 14:50:14 2021, MaxMem=   524288000 cpu:               0.1 elap:               0.4
 (Enter /opt/gaussian/g16_legacy/l401.exe)
 ExpMin= 1.61D-01 ExpMax= 3.05D+03 ExpMxC= 4.57D+02 IAcc=3 IRadAn=         5 AccDes= 0.00D+00
 Harris functional with IExCor=  205 and IRadAn=       5 diagonalized for initial guess.
 HarFok:  IExCor=  205 AccDes= 0.00D+00 IRadAn=         5 IDoV= 1 UseB2=F ITyADJ=14
 ICtDFT=  3500011 ScaDFX=  1.000000  1.000000  1.000000  1.000000
 FoFCou: FMM=F IPFlag=           0 FMFlag=      100000 FMFlg1=           0
         NFxFlg=           0 DoJE=T BraDBF=F KetDBF=T FulRan=T
         wScrn=  0.000000 ICntrl=       500 IOpCl=  0 I1Cent=   200000004 NGrid=           0
         NMat0=    1 NMatS0=      1 NMatT0=    0 NMatD0=    1 NMtDS0=    0 NMtDT0=    0
 Petite list used in FoFCou.
 Harris En= -390.109885660269    
 JPrj=0 DoOrth=F DoCkMO=F.
 Leave Link  401 at Fri Sep 17 14:50:25 2021, MaxMem=   524288000 cpu:              11.3 elap:              11.5
 (Enter /opt/gaussian/g16_legacy/l502.exe)
 Keep R1 ints in memory in canonical form, NReq=425198025.
 FoFCou: FMM=F IPFlag=           0 FMFlag=           0 FMFlg1=           0
         NFxFlg=           0 DoJE=F BraDBF=F KetDBF=F FulRan=T
         wScrn=  0.000000 ICntrl=       600 IOpCl=  0 I1Cent=           0 NGrid=           0
         NMat0=    1 NMatS0=  28920 NMatT0=    0 NMatD0=    1 NMtDS0=    0 NMtDT0=    0
 Symmetry not used in FoFCou.
 Two-electron integral symmetry not used.
 Closed shell SCF:
 Using DIIS extrapolation, IDIIS=  1040.
 NGot=   524288000 LenX=   105970886 LenY=   105912845
 Requested convergence on RMS density matrix=1.00D-08 within 128 cycles.
 Requested convergence on MAX density matrix=1.00D-06.
 Requested convergence on             energy=1.00D-06.
 No special actions if energy rises.

 Cycle   1  Pass 1  IDiag  1:
 E= -388.533180261837    
 DIIS: error= 5.21D-02 at cycle   1 NSaved=   1.
 NSaved= 1 IEnMin= 1 EnMin= -388.533180261837     IErMin= 1 ErrMin= 5.21D-02
 ErrMax= 5.21D-02  0.00D+00 EMaxC= 1.00D-01 BMatC= 8.07D-01 BMatP= 8.07D-01
 IDIUse=3 WtCom= 4.79D-01 WtEn= 5.21D-01
 Coeff-Com:  0.100D+01
 Coeff-En:   0.100D+01
 Coeff:      0.100D+01
 Gap=     0.508 Goal=   None    Shift=    0.000
 GapD=    0.508 DampG=2.000 DampE=0.500 DampFc=1.0000 IDamp=-1.
 RMSDP=4.00D-03 MaxDP=1.14D-01              OVMax= 1.33D-01

 Cycle   2  Pass 1  IDiag  1:
 E= -389.073865975437     Delta-E=       -0.540685713600 Rises=F Damp=F
 DIIS: error= 1.59D-02 at cycle   2 NSaved=   2.
 NSaved= 2 IEnMin= 2 EnMin= -389.073865975437     IErMin= 2 ErrMin= 1.59D-02
 ErrMax= 1.59D-02  0.00D+00 EMaxC= 1.00D-01 BMatC= 8.66D-02 BMatP= 8.07D-01
 IDIUse=3 WtCom= 8.41D-01 WtEn= 1.59D-01
 Coeff-Com:  0.183D+00 0.817D+00
 Coeff-En:   0.000D+00 0.100D+01
 Coeff:      0.154D+00 0.846D+00
 Gap=     0.549 Goal=   None    Shift=    0.000
 RMSDP=1.63D-03 MaxDP=3.04D-02 DE=-5.41D-01 OVMax= 4.61D-02

 Cycle   3  Pass 1  IDiag  1:
 E= -389.151430215479     Delta-E=       -0.077564240042 Rises=F Damp=F
 DIIS: error= 3.43D-03 at cycle   3 NSaved=   3.
 NSaved= 3 IEnMin= 3 EnMin= -389.151430215479     IErMin= 3 ErrMin= 3.43D-03
 ErrMax= 3.43D-03  0.00D+00 EMaxC= 1.00D-01 BMatC= 3.14D-03 BMatP= 8.66D-02
 IDIUse=3 WtCom= 9.66D-01 WtEn= 3.43D-02
 Coeff-Com: -0.245D-01 0.106D+00 0.919D+00
 Coeff-En:   0.000D+00 0.000D+00 0.100D+01
 Coeff:     -0.236D-01 0.102D+00 0.921D+00
 Gap=     0.499 Goal=   None    Shift=    0.000
 RMSDP=2.59D-04 MaxDP=7.14D-03 DE=-7.76D-02 OVMax= 1.01D-02

 Cycle   4  Pass 1  IDiag  1:
 E= -389.155056265591     Delta-E=       -0.003626050113 Rises=F Damp=F
 DIIS: error= 5.31D-04 at cycle   4 NSaved=   4.
 NSaved= 4 IEnMin= 4 EnMin= -389.155056265591     IErMin= 4 ErrMin= 5.31D-04
 ErrMax= 5.31D-04  0.00D+00 EMaxC= 1.00D-01 BMatC= 9.29D-05 BMatP= 3.14D-03
 IDIUse=3 WtCom= 9.95D-01 WtEn= 5.31D-03
 Coeff-Com: -0.424D-02-0.188D-02 0.951D-01 0.911D+00
 Coeff-En:   0.000D+00 0.000D+00 0.000D+00 0.100D+01
 Coeff:     -0.422D-02-0.187D-02 0.945D-01 0.912D+00
 Gap=     0.499 Goal=   None    Shift=    0.000
 RMSDP=7.39D-05 MaxDP=1.49D-03 DE=-3.63D-03 OVMax= 3.14D-03

 Cycle   5  Pass 1  IDiag  1:
 E= -389.155180630581     Delta-E=       -0.000124364990 Rises=F Damp=F
 DIIS: error= 1.63D-04 at cycle   5 NSaved=   5.
 NSaved= 5 IEnMin= 5 EnMin= -389.155180630581     IErMin= 5 ErrMin= 1.63D-04
 ErrMax= 1.63D-04  0.00D+00 EMaxC= 1.00D-01 BMatC= 1.60D-05 BMatP= 9.29D-05
 IDIUse=3 WtCom= 9.98D-01 WtEn= 1.63D-03
 Coeff-Com:  0.241D-02-0.152D-01-0.102D+00 0.176D+00 0.939D+00
 Coeff-En:   0.000D+00 0.000D+00 0.000D+00 0.000D+00 0.100D+01
 Coeff:      0.241D-02-0.152D-01-0.102D+00 0.175D+00 0.939D+00
 Gap=     0.500 Goal=   None    Shift=    0.000
 RMSDP=3.00D-05 MaxDP=6.56D-04 DE=-1.24D-04 OVMax= 9.23D-04

 Cycle   6  Pass 1  IDiag  1:
 E= -389.155202120241     Delta-E=       -0.000021489660 Rises=F Damp=F
 DIIS: error= 3.58D-05 at cycle   6 NSaved=   6.
 NSaved= 6 IEnMin= 6 EnMin= -389.155202120241     IErMin= 6 ErrMin= 3.58D-05
 ErrMax= 3.58D-05  0.00D+00 EMaxC= 1.00D-01 BMatC= 5.50D-07 BMatP= 1.60D-05
 IDIUse=1 WtCom= 1.00D+00 WtEn= 0.00D+00
 Coeff-Com:  0.720D-03-0.335D-02-0.261D-01-0.433D-02 0.177D+00 0.856D+00
 Coeff:      0.720D-03-0.335D-02-0.261D-01-0.433D-02 0.177D+00 0.856D+00
 Gap=     0.500 Goal=   None    Shift=    0.000
 RMSDP=5.30D-06 MaxDP=1.61D-04 DE=-2.15D-05 OVMax= 3.24D-04

 Cycle   7  Pass 1  IDiag  1:
 E= -389.155202961513     Delta-E=       -0.000000841272 Rises=F Damp=F
 DIIS: error= 1.03D-05 at cycle   7 NSaved=   7.
 NSaved= 7 IEnMin= 7 EnMin= -389.155202961513     IErMin= 7 ErrMin= 1.03D-05
 ErrMax= 1.03D-05  0.00D+00 EMaxC= 1.00D-01 BMatC= 5.45D-08 BMatP= 5.50D-07
 IDIUse=1 WtCom= 1.00D+00 WtEn= 0.00D+00
 Coeff-Com: -0.494D-04 0.464D-03 0.301D-02-0.105D-01-0.468D-01 0.145D+00
 Coeff-Com:  0.909D+00
 Coeff:     -0.494D-04 0.464D-03 0.301D-02-0.105D-01-0.468D-01 0.145D+00
 Coeff:      0.909D+00
 Gap=     0.500 Goal=   None    Shift=    0.000
 RMSDP=1.71D-06 MaxDP=4.10D-05 DE=-8.41D-07 OVMax= 8.42D-05

 Cycle   8  Pass 1  IDiag  1:
 E= -389.155203050477     Delta-E=       -0.000000088964 Rises=F Damp=F
 DIIS: error= 3.51D-06 at cycle   8 NSaved=   8.
 NSaved= 8 IEnMin= 8 EnMin= -389.155203050477     IErMin= 8 ErrMin= 3.51D-06
 ErrMax= 3.51D-06  0.00D+00 EMaxC= 1.00D-01 BMatC= 5.10D-09 BMatP= 5.45D-08
 IDIUse=1 WtCom= 1.00D+00 WtEn= 0.00D+00
 Coeff-Com: -0.581D-04 0.249D-03 0.208D-02 0.315D-02-0.171D-01-0.804D-01
 Coeff-Com: -0.123D+00 0.121D+01
 Coeff:     -0.581D-04 0.249D-03 0.208D-02 0.315D-02-0.171D-01-0.804D-01
 Coeff:     -0.123D+00 0.121D+01
 Gap=     0.500 Goal=   None    Shift=    0.000
 RMSDP=7.86D-07 MaxDP=2.41D-05 DE=-8.90D-08 OVMax= 5.81D-05

 Cycle   9  Pass 1  IDiag  1:
 E= -389.155203066366     Delta-E=       -0.000000015889 Rises=F Damp=F
 DIIS: error= 1.46D-06 at cycle   9 NSaved=   9.
 NSaved= 9 IEnMin= 9 EnMin= -389.155203066366     IErMin= 9 ErrMin= 1.46D-06
 ErrMax= 1.46D-06  0.00D+00 EMaxC= 1.00D-01 BMatC= 7.40D-10 BMatP= 5.10D-09
 IDIUse=1 WtCom= 1.00D+00 WtEn= 0.00D+00
 Coeff-Com:  0.929D-05-0.690D-04-0.480D-03 0.144D-02 0.385D-02 0.103D-03
 Coeff-Com: -0.865D-01-0.120D+00 0.120D+01
 Coeff:      0.929D-05-0.690D-04-0.480D-03 0.144D-02 0.385D-02 0.103D-03
 Coeff:     -0.865D-01-0.120D+00 0.120D+01
 Gap=     0.500 Goal=   None    Shift=    0.000
 RMSDP=2.99D-07 MaxDP=1.24D-05 DE=-1.59D-08 OVMax= 2.71D-05

 Cycle  10  Pass 1  IDiag  1:
 E= -389.155203068782     Delta-E=       -0.000000002416 Rises=F Damp=F
 DIIS: error= 3.97D-07 at cycle  10 NSaved=  10.
 NSaved=10 IEnMin=10 EnMin= -389.155203068782     IErMin=10 ErrMin= 3.97D-07
 ErrMax= 3.97D-07  0.00D+00 EMaxC= 1.00D-01 BMatC= 1.21D-10 BMatP= 7.40D-10
 IDIUse=1 WtCom= 1.00D+00 WtEn= 0.00D+00
 Coeff-Com:  0.952D-05-0.464D-04-0.369D-03-0.135D-03 0.233D-02 0.142D-01
 Coeff-Com:  0.596D-02-0.211D+00 0.143D+00 0.105D+01
 Coeff:      0.952D-05-0.464D-04-0.369D-03-0.135D-03 0.233D-02 0.142D-01
 Coeff:      0.596D-02-0.211D+00 0.143D+00 0.105D+01
 Gap=     0.500 Goal=   None    Shift=    0.000
 RMSDP=1.24D-07 MaxDP=3.06D-06 DE=-2.42D-09 OVMax= 9.88D-06

 Cycle  11  Pass 1  IDiag  1:
 E= -389.155203069111     Delta-E=       -0.000000000329 Rises=F Damp=F
 DIIS: error= 1.55D-07 at cycle  11 NSaved=  11.
 NSaved=11 IEnMin=11 EnMin= -389.155203069111     IErMin=11 ErrMin= 1.55D-07
 ErrMax= 1.55D-07  0.00D+00 EMaxC= 1.00D-01 BMatC= 9.55D-12 BMatP= 1.21D-10
 IDIUse=1 WtCom= 1.00D+00 WtEn= 0.00D+00
 Coeff-Com:  0.395D-06 0.837D-06 0.996D-06-0.149D-03-0.305D-03 0.278D-02
 Coeff-Com:  0.110D-01-0.153D-01-0.107D+00 0.164D+00 0.945D+00
 Coeff:      0.395D-06 0.837D-06 0.996D-06-0.149D-03-0.305D-03 0.278D-02
 Coeff:      0.110D-01-0.153D-01-0.107D+00 0.164D+00 0.945D+00
 Gap=     0.500 Goal=   None    Shift=    0.000
 RMSDP=2.77D-08 MaxDP=1.16D-06 DE=-3.29D-10 OVMax= 2.51D-06

 Cycle  12  Pass 1  IDiag  1:
 E= -389.155203069118     Delta-E=       -0.000000000007 Rises=F Damp=F
 DIIS: error= 3.64D-08 at cycle  12 NSaved=  12.
 NSaved=12 IEnMin=12 EnMin= -389.155203069118     IErMin=12 ErrMin= 3.64D-08
 ErrMax= 3.64D-08  0.00D+00 EMaxC= 1.00D-01 BMatC= 1.17D-12 BMatP= 9.55D-12
 IDIUse=1 WtCom= 1.00D+00 WtEn= 0.00D+00
 Coeff-Com: -0.102D-05 0.547D-05 0.429D-04 0.325D-05-0.342D-03-0.126D-02
 Coeff-Com:  0.366D-03 0.217D-01-0.321D-01-0.113D+00 0.982D-01 0.103D+01
 Coeff:     -0.102D-05 0.547D-05 0.429D-04 0.325D-05-0.342D-03-0.126D-02
 Coeff:      0.366D-03 0.217D-01-0.321D-01-0.113D+00 0.982D-01 0.103D+01
 Gap=     0.500 Goal=   None    Shift=    0.000
 RMSDP=1.18D-08 MaxDP=3.33D-07 DE=-6.93D-12 OVMax= 8.46D-07

 Cycle  13  Pass 1  IDiag  1:
 E= -389.155203069134     Delta-E=       -0.000000000016 Rises=F Damp=F
 DIIS: error= 1.06D-08 at cycle  13 NSaved=  13.
 NSaved=13 IEnMin=13 EnMin= -389.155203069134     IErMin=13 ErrMin= 1.06D-08
 ErrMax= 1.06D-08  0.00D+00 EMaxC= 1.00D-01 BMatC= 5.48D-14 BMatP= 1.17D-12
 IDIUse=1 WtCom= 1.00D+00 WtEn= 0.00D+00
 Coeff-Com: -0.122D-06 0.462D-06 0.389D-05 0.136D-04-0.170D-04-0.298D-03
 Coeff-Com: -0.849D-03 0.352D-02 0.516D-02-0.213D-01-0.612D-01 0.111D+00
 Coeff-Com:  0.964D+00
 Coeff:     -0.122D-06 0.462D-06 0.389D-05 0.136D-04-0.170D-04-0.298D-03
 Coeff:     -0.849D-03 0.352D-02 0.516D-02-0.213D-01-0.612D-01 0.111D+00
 Coeff:      0.964D+00
 Gap=     0.500 Goal=   None    Shift=    0.000
 RMSDP=2.13D-09 MaxDP=7.03D-08 DE=-1.59D-11 OVMax= 1.05D-07

 SCF Done:  E(RHF) =  -389.155203069     A.U. after   13 cycles
            NFock= 13  Conv=0.21D-08     -V/T= 2.0014
 KE= 3.886257133304D+02 PE=-1.937505623337D+03 EE= 6.432886793474D+02
 Leave Link  502 at Fri Sep 17 14:50:57 2021, MaxMem=   524288000 cpu:              32.0 elap:              32.0
 (Enter /opt/gaussian/g16_legacy/l801.exe)
 ExpMin= 1.61D-01 ExpMax= 3.05D+03 ExpMxC= 4.57D+02 IAcc=3 IRadAn=         5 AccDes= 0.00D+00
 HarFok:  IExCor=  205 AccDes= 0.00D+00 IRadAn=         5 IDoV=-2 UseB2=F ITyADJ=14
 ICtDFT= 12500011 ScaDFX=  1.000000  1.000000  1.000000  1.000000
 Largest valence mixing into a core orbital is  1.98D-04
 Largest core mixing into a valence orbital is  3.52D-05
 Range of M.O.s used for correlation:    11   240
 NBasis=   240 NAE=    39 NBE=    39 NFC=    10 NFV=     0
 NROrb=    230 NOA=    29 NOB=    29 NVA=   201 NVB=   201
 Leave Link  801 at Fri Sep 17 14:50:59 2021, MaxMem=   524288000 cpu:               1.7 elap:               1.7
 (Enter /opt/gaussian/g16_legacy/l906.exe)
 Frozen-core derivative calculation, NFC=  10 NFV=   0.
 FulOut=F Deriv=T AODrv=T NAtomX=    28
   MMem=          88  MDisk=          29 MDiskD=          29
  W3Min=     2246400 MinDsk=     2795480 NBas6D=         240
 NBas2D=       29244    NTT=       28920    LW2=     2040000
    MDV=   523626386 MDiskM=       30186 NBas2p=       24383
 Fully direct method using O(ONN) memory.
 IMap=   1   2   3   4   5   6   7   8   9  10  11  12  13  14  15  16  17  18  19  20
 IMap=  21  22  23  24  25  26  27  28  29  30  31  32  33  34  35  36  37  38  39
 JobTyp=1 Pass  1:  I=  11 to  39 NPSUse=  1 ParTrn=F ParDer=F DoDerP=T.
 Spin components of T(2) and E(2):
     alpha-alpha T2 =       0.5715193933D-01 E2=     -0.1638031745D+00
     alpha-beta  T2 =       0.3618186166D+00 E2=     -0.1089339885D+01
     beta-beta   T2 =       0.5715193933D-01 E2=     -0.1638031745D+00
 The integrals were generated   1 times.
 ANorm=    0.1214957816D+01
 E2 =    -0.1416946234D+01 EUMP2 =    -0.39057214930345D+03
 Leave Link  906 at Fri Sep 17 14:55:10 2021, MaxMem=   524288000 cpu:             249.8 elap:             250.6
 (Enter /opt/gaussian/g16_legacy/l1002.exe)
 Minotr:  Closed shell wavefunction.
          Computing MP2/KS-MP2 derivatives.
          Using Z-Vector for PSCF gradient.
          Skipping F1 and S1 gradient terms here.
          IDoAtm=1111111111111111111111111111
          Frozen-core window.
          Direct CPHF calculation.
          Differentiating once with respect to electric field.
                with respect to dipole field.
          Differentiating once with respect to nuclear coordinates.
          Requested convergence is 1.0D-10 RMS, and 1.0D-09 maximum.
          NewPWx=F KeepS1=T KeepF1=T KeepIn=T MapXYZ=F SortEE=F KeepMc=T.
 Keep R1 ints in memory in canonical form, NReq=425201067.
 FoFCou: FMM=F IPFlag=           0 FMFlag=           0 FMFlg1=           0
         NFxFlg=           0 DoJE=F BraDBF=F KetDBF=F FulRan=T
         wScrn=  0.000000 ICntrl=       600 IOpCl=  0 I1Cent=           0 NGrid=           0
         NMat0=    1 NMatS0=  28920 NMatT0=    0 NMatD0=    1 NMtDS0=    0 NMtDT0=    0
 Symmetry not used in FoFCou.
 Two-electron integral symmetry not used.
          MDV=     524288000 using IRadAn=       5.
          Solving linear equations separately, MaxMat=       0.
          There are     1 degrees of freedom in the 1st order CPHF.  IDoFFX=0 NUNeed=     1.
 LinEq1:  Iter=  0 NonCon=     1 RMS=2.55D-03 Max=3.76D-02 NDo=     1
 AX will form     1 AO Fock derivatives at one time.
 LinEq1:  Iter=  1 NonCon=     1 RMS=6.90D-04 Max=9.74D-03 NDo=     1
 LinEq1:  Iter=  2 NonCon=     1 RMS=1.61D-04 Max=4.14D-03 NDo=     1
 LinEq1:  Iter=  3 NonCon=     1 RMS=4.31D-05 Max=5.08D-04 NDo=     1
 LinEq1:  Iter=  4 NonCon=     1 RMS=1.99D-05 Max=8.55D-04 NDo=     1
 LinEq1:  Iter=  5 NonCon=     1 RMS=5.06D-06 Max=8.27D-05 NDo=     1
 LinEq1:  Iter=  6 NonCon=     1 RMS=1.63D-06 Max=2.68D-05 NDo=     1
 LinEq1:  Iter=  7 NonCon=     1 RMS=4.13D-07 Max=4.19D-06 NDo=     1
 LinEq1:  Iter=  8 NonCon=     1 RMS=1.01D-07 Max=1.86D-06 NDo=     1
 LinEq1:  Iter=  9 NonCon=     1 RMS=2.33D-08 Max=6.32D-07 NDo=     1
 LinEq1:  Iter= 10 NonCon=     1 RMS=6.41D-09 Max=1.62D-07 NDo=     1
 LinEq1:  Iter= 11 NonCon=     1 RMS=1.89D-09 Max=3.62D-08 NDo=     1
 LinEq1:  Iter= 12 NonCon=     1 RMS=4.06D-10 Max=5.81D-09 NDo=     1
 LinEq1:  Iter= 13 NonCon=     1 RMS=1.00D-10 Max=1.64D-09 NDo=     1
 LinEq1:  Iter= 14 NonCon=     0 RMS=3.13D-11 Max=7.86D-10 NDo=     1
 Linear equations converged to 1.000D-10 1.000D-09 after    14 iterations.
 End of Minotr F.D. properties file   721 does not exist.
 End of Minotr F.D. properties file   722 does not exist.
 End of Minotr F.D. properties file   788 does not exist.
 Leave Link 1002 at Fri Sep 17 14:55:50 2021, MaxMem=   524288000 cpu:              40.0 elap:              40.2
 (Enter /opt/gaussian/g16_legacy/l601.exe)
 Copying SCF densities to generalized density rwf, IOpCl= 0 IROHF=0.

 **********************************************************************

            Population analysis using the SCF density.

 **********************************************************************

 Orbital symmetries:
       Occupied  (A) (A) (A) (A) (A) (A) (A) (A) (A) (A) (A) (A)
                 (A) (A) (A) (A) (A) (A) (A) (A) (A) (A) (A) (A)
                 (A) (A) (A) (A) (A) (A) (A) (A) (A) (A) (A) (A)
                 (A) (A) (A)
       Virtual   (A) (A) (A) (A) (A) (A) (A) (A) (A) (A) (A) (A)
                 (A) (A) (A) (A) (A) (A) (A) (A) (A) (A) (A) (A)
                 (A) (A) (A) (A) (A) (A) (A) (A) (A) (A) (A) (A)
                 (A) (A) (A) (A) (A) (A) (A) (A) (A) (A) (A) (A)
                 (A) (A) (A) (A) (A) (A) (A) (A) (A) (A) (A) (A)
                 (A) (A) (A) (A) (A) (A) (A) (A) (A) (A) (A) (A)
                 (A) (A) (A) (A) (A) (A) (A) (A) (A) (A) (A) (A)
                 (A) (A) (A) (A) (A) (A) (A) (A) (A) (A) (A) (A)
                 (A) (A) (A) (A) (A) (A) (A) (A) (A) (A) (A) (A)
                 (A) (A) (A) (A) (A) (A) (A) (A) (A) (A) (A) (A)
                 (A) (A) (A) (A) (A) (A) (A) (A) (A) (A) (A) (A)
                 (A) (A) (A) (A) (A) (A) (A) (A) (A) (A) (A) (A)
                 (A) (A) (A) (A) (A) (A) (A) (A) (A) (A) (A) (A)
                 (A) (A) (A) (A) (A) (A) (A) (A) (A) (A) (A) (A)
                 (A) (A) (A) (A) (A) (A) (A) (A) (A) (A) (A) (A)
                 (A) (A) (A) (A) (A) (A) (A) (A) (A) (A) (A) (A)
                 (A) (A) (A) (A) (A) (A) (A) (A) (A)
 The electronic state is 1-A.
 Alpha  occ. eigenvalues --  -11.23060 -11.22505 -11.22000 -11.21921 -11.21884
 Alpha  occ. eigenvalues --  -11.21651 -11.21553 -11.21484 -11.21457 -11.21438
 Alpha  occ. eigenvalues --   -1.10624  -1.08327  -1.01911  -0.98013  -0.93646
 Alpha  occ. eigenvalues --   -0.91776  -0.86754  -0.82686  -0.70599  -0.69343
 Alpha  occ. eigenvalues --   -0.64585  -0.61545  -0.60101  -0.59030  -0.58087
 Alpha  occ. eigenvalues --   -0.56803  -0.55367  -0.55150  -0.53547  -0.51980
 Alpha  occ. eigenvalues --   -0.51716  -0.51320  -0.50592  -0.49228  -0.48277
 Alpha  occ. eigenvalues --   -0.46014  -0.44273  -0.33356  -0.31525
 Alpha virt. eigenvalues --    0.18455   0.19493   0.22038   0.24453   0.25183
 Alpha virt. eigenvalues --    0.27141   0.28394   0.28931   0.30249   0.30504
 Alpha virt. eigenvalues --    0.31237   0.32116   0.33136   0.33435   0.34030
 Alpha virt. eigenvalues --    0.35676   0.35774   0.36970   0.38997   0.40648
 Alpha virt. eigenvalues --    0.41064   0.42594   0.43322   0.44191   0.45149
 Alpha virt. eigenvalues --    0.51684   0.54045   0.61172   0.62444   0.70138
 Alpha virt. eigenvalues --    0.71103   0.71888   0.74281   0.76417   0.76616
 Alpha virt. eigenvalues --    0.76877   0.78796   0.79455   0.81139   0.82036
 Alpha virt. eigenvalues --    0.83811   0.85655   0.88081   0.91265   0.92027
 Alpha virt. eigenvalues --    0.92897   0.95178   0.97058   0.98263   0.99207
 Alpha virt. eigenvalues --    0.99750   1.00202   1.02302   1.03926   1.06181
 Alpha virt. eigenvalues --    1.07862   1.08639   1.08808   1.11197   1.12389
 Alpha virt. eigenvalues --    1.12559   1.13431   1.14582   1.14925   1.15818
 Alpha virt. eigenvalues --    1.16164   1.16401   1.18224   1.18705   1.20092
 Alpha virt. eigenvalues --    1.20659   1.22067   1.22851   1.25017   1.27541
 Alpha virt. eigenvalues --    1.34170   1.40671   1.41848   1.43739   1.45168
 Alpha virt. eigenvalues --    1.47559   1.53475   1.56256   1.56979   1.58249
 Alpha virt. eigenvalues --    1.59849   1.62719   1.65797   1.69518   1.70790
 Alpha virt. eigenvalues --    1.75330   1.82525   1.92032   1.92196   1.95500
 Alpha virt. eigenvalues --    1.98631   2.01126   2.02849   2.04183   2.08703
 Alpha virt. eigenvalues --    2.09246   2.11123   2.11378   2.13103   2.14503
 Alpha virt. eigenvalues --    2.15426   2.17689   2.19722   2.23578   2.27381
 Alpha virt. eigenvalues --    2.28337   2.29993   2.32201   2.34973   2.35567
 Alpha virt. eigenvalues --    2.35646   2.35784   2.39323   2.39849   2.40349
 Alpha virt. eigenvalues --    2.41285   2.41825   2.43040   2.45158   2.45380
 Alpha virt. eigenvalues --    2.47037   2.48342   2.49334   2.50339   2.54524
 Alpha virt. eigenvalues --    2.56585   2.57720   2.61275   2.62182   2.64352
 Alpha virt. eigenvalues --    2.66339   2.67157   2.72031   2.72991   2.73745
 Alpha virt. eigenvalues --    2.75719   2.77699   2.81087   2.82801   2.85154
 Alpha virt. eigenvalues --    2.87730   2.89154   2.91918   2.93441   2.94435
 Alpha virt. eigenvalues --    2.97093   2.99035   3.01166   3.02603   3.05100
 Alpha virt. eigenvalues --    3.05822   3.06633   3.08505   3.13016   3.15942
 Alpha virt. eigenvalues --    3.17130   3.18162   3.19612   3.20678   3.21263
 Alpha virt. eigenvalues --    3.23189   3.24413   3.26463   3.27240   3.36666
 Alpha virt. eigenvalues --    3.39070   3.44602   3.45617   3.55545   3.57289
 Alpha virt. eigenvalues --    3.58695   3.61046   3.66887   3.73952   3.78196
 Alpha virt. eigenvalues --    3.78867   3.80511   3.81319   3.82331   3.82835
 Alpha virt. eigenvalues --    3.84215   3.85751   3.87655   3.89511   3.91176
 Alpha virt. eigenvalues --    3.95896   4.59096   4.62635   4.74428   4.82815
 Alpha virt. eigenvalues --    4.88836   4.92667   4.93351   5.07550   5.10288
 Alpha virt. eigenvalues --    5.16868
          Condensed to atoms (all electrons):
               1          2          3          4          5          6
     1  C    5.001770   0.412362   0.413515   0.340285  -0.058747   0.003675
     2  H    0.412362   0.571657  -0.030221  -0.040537   0.003238  -0.000103
     3  H    0.413515  -0.030221   0.588478  -0.045057  -0.004692   0.000081
     4  C    0.340285  -0.040537  -0.045057   4.955096   0.349332  -0.041402
     5  C   -0.058747   0.003238  -0.004692   0.349332   4.896476   0.406174
     6  H    0.003675  -0.000103   0.000081  -0.041402   0.406174   0.571050
     7  H   -0.003552  -0.000016   0.002571  -0.043069   0.397373  -0.027610
     8  H   -0.000530  -0.000030  -0.000276  -0.045806   0.400280  -0.028083
     9  C   -0.044041  -0.002232   0.001918   0.698834  -0.045935  -0.002738
    10  H    0.003078   0.000060  -0.000114  -0.036517  -0.006481   0.002220
    11  C   -0.007063  -0.002134   0.000138  -0.050698   0.003425   0.000137
    12  H    0.000227   0.000172   0.000028  -0.001413  -0.000116  -0.000004
    13  H   -0.001830  -0.001333   0.000004  -0.000419   0.000093   0.000004
    14  H    0.000232  -0.000034  -0.000010   0.000594  -0.000100  -0.000009
    15  C   -0.000101  -0.000042  -0.000000   0.000002  -0.000000   0.000000
    16  H   -0.000003  -0.000002   0.000002   0.000000  -0.000000   0.000000
    17  H   -0.000004   0.000001   0.000000   0.000000  -0.000000   0.000000
    18  H    0.000022  -0.000005  -0.000001  -0.000000   0.000000  -0.000000
    19  C   -0.003607   0.001046   0.000615   0.000006  -0.000002   0.000000
    20  C    0.000597   0.000160  -0.000016  -0.000018  -0.000000  -0.000000
    21  H   -0.000053  -0.000052  -0.000012  -0.000027  -0.000000   0.000000
    22  H    0.000077  -0.000076  -0.000001  -0.000002   0.000000  -0.000000
    23  H   -0.000041   0.000014   0.000000   0.000001  -0.000000   0.000000
    24  C   -0.063057  -0.000807  -0.000609   0.006131  -0.000158   0.000003
    25  H    0.000005   0.000213   0.001004  -0.000155   0.000010  -0.000000
    26  C    0.326228  -0.039854  -0.044605  -0.057375  -0.000188  -0.000097
    27  H   -0.040291  -0.002144   0.004202  -0.001438   0.000317  -0.000010
    28  H   -0.045123   0.004290  -0.002603  -0.001851  -0.000392  -0.000025
               7          8          9         10         11         12
     1  C   -0.003552  -0.000530  -0.044041   0.003078  -0.007063   0.000227
     2  H   -0.000016  -0.000030  -0.002232   0.000060  -0.002134   0.000172
     3  H    0.002571  -0.000276   0.001918  -0.000114   0.000138   0.000028
     4  C   -0.043069  -0.045806   0.698834  -0.036517  -0.050698  -0.001413
     5  C    0.397373   0.400280  -0.045935  -0.006481   0.003425  -0.000116
     6  H   -0.027610  -0.028083  -0.002738   0.002220   0.000137  -0.000004
     7  H    0.593642  -0.035013  -0.000426   0.000248  -0.000114   0.000021
     8  H   -0.035013   0.594765  -0.001034   0.000123  -0.000100  -0.000005
     9  C   -0.000426  -0.001034   4.939945   0.404880   0.337723  -0.044359
    10  H    0.000248   0.000123   0.404880   0.559308  -0.043636  -0.000221
    11  C   -0.000114  -0.000100   0.337723  -0.043636   4.906238   0.400026
    12  H    0.000021  -0.000005  -0.044359  -0.000221   0.400026   0.584267
    13  H   -0.000001   0.000000  -0.041930   0.003314   0.408025  -0.026857
    14  H   -0.000004   0.000015  -0.042843  -0.002647   0.403005  -0.033281
    15  C   -0.000000  -0.000000  -0.000000   0.000000  -0.000000   0.000000
    16  H   -0.000000  -0.000000  -0.000000   0.000000   0.000000  -0.000000
    17  H    0.000000   0.000000   0.000000   0.000000  -0.000000   0.000000
    18  H   -0.000000   0.000000  -0.000000  -0.000000   0.000000  -0.000000
    19  C    0.000000   0.000000   0.000001   0.000000   0.000007  -0.000000
    20  C   -0.000000  -0.000000   0.000010  -0.000000  -0.000097   0.000002
    21  H   -0.000000   0.000000  -0.000032   0.000000   0.000040  -0.000008
    22  H   -0.000000   0.000000   0.000000  -0.000000  -0.000003  -0.000000
    23  H    0.000000   0.000000   0.000000   0.000000   0.000002   0.000000
    24  C    0.000001  -0.000086   0.000070   0.000002  -0.000032   0.000002
    25  H   -0.000002   0.000012  -0.000002  -0.000000   0.000000   0.000000
    26  C    0.000027   0.000811  -0.004367  -0.000116   0.000690  -0.000050
    27  H    0.000012  -0.000009   0.001215  -0.000044   0.000070   0.000023
    28  H    0.000093  -0.000187   0.000514   0.000004  -0.000030  -0.000000
              13         14         15         16         17         18
     1  C   -0.001830   0.000232  -0.000101  -0.000003  -0.000004   0.000022
     2  H   -0.001333  -0.000034  -0.000042  -0.000002   0.000001  -0.000005
     3  H    0.000004  -0.000010  -0.000000   0.000002   0.000000  -0.000001
     4  C   -0.000419   0.000594   0.000002   0.000000   0.000000  -0.000000
     5  C    0.000093  -0.000100  -0.000000  -0.000000  -0.000000   0.000000
     6  H    0.000004  -0.000009   0.000000   0.000000   0.000000  -0.000000
     7  H   -0.000001  -0.000004  -0.000000  -0.000000   0.000000  -0.000000
     8  H    0.000000   0.000015  -0.000000  -0.000000   0.000000   0.000000
     9  C   -0.041930  -0.042843  -0.000000  -0.000000   0.000000  -0.000000
    10  H    0.003314  -0.002647   0.000000   0.000000   0.000000  -0.000000
    11  C    0.408025   0.403005  -0.000000   0.000000  -0.000000   0.000000
    12  H   -0.026857  -0.033281   0.000000  -0.000000   0.000000  -0.000000
    13  H    0.573891  -0.030022   0.000000  -0.000000  -0.000000  -0.000000
    14  H   -0.030022   0.586817  -0.000000  -0.000000  -0.000000   0.000000
    15  C    0.000000  -0.000000   4.903251   0.405420   0.399263   0.396991
    16  H   -0.000000  -0.000000   0.405420   0.568053  -0.027565  -0.027365
    17  H   -0.000000  -0.000000   0.399263  -0.027565   0.593062  -0.034899
    18  H   -0.000000   0.000000   0.396991  -0.027365  -0.034899   0.594282
    19  C   -0.000013   0.000000   0.352280  -0.040399  -0.045762  -0.044303
    20  C    0.000010  -0.000004  -0.065379   0.003695  -0.001105  -0.002140
    21  H    0.000571   0.000042   0.003678  -0.000108  -0.000023  -0.000072
    22  H    0.000034   0.000000  -0.003430   0.000010  -0.000507   0.002847
    23  H   -0.000006  -0.000000  -0.001685  -0.000079   0.002553  -0.000371
    24  C    0.000003  -0.000004  -0.044859  -0.002386  -0.001136  -0.000547
    25  H   -0.000001   0.000000  -0.006748   0.002177   0.000150   0.000235
    26  C   -0.000212   0.000091   0.003152   0.000146  -0.000124  -0.000086
    27  H   -0.000251  -0.000079   0.000070   0.000006   0.000004  -0.000004
    28  H   -0.000008   0.000000  -0.000102  -0.000011   0.000012  -0.000002
              19         20         21         22         23         24
     1  C   -0.003607   0.000597  -0.000053   0.000077  -0.000041  -0.063057
     2  H    0.001046   0.000160  -0.000052  -0.000076   0.000014  -0.000807
     3  H    0.000615  -0.000016  -0.000012  -0.000001   0.000000  -0.000609
     4  C    0.000006  -0.000018  -0.000027  -0.000002   0.000001   0.006131
     5  C   -0.000002  -0.000000  -0.000000   0.000000  -0.000000  -0.000158
     6  H    0.000000  -0.000000   0.000000  -0.000000   0.000000   0.000003
     7  H    0.000000  -0.000000  -0.000000  -0.000000   0.000000   0.000001
     8  H    0.000000  -0.000000   0.000000   0.000000   0.000000  -0.000086
     9  C    0.000001   0.000010  -0.000032   0.000000   0.000000   0.000070
    10  H    0.000000  -0.000000   0.000000  -0.000000   0.000000   0.000002
    11  C    0.000007  -0.000097   0.000040  -0.000003   0.000002  -0.000032
    12  H   -0.000000   0.000002  -0.000008  -0.000000   0.000000   0.000002
    13  H   -0.000013   0.000010   0.000571   0.000034  -0.000006   0.000003
    14  H    0.000000  -0.000004   0.000042   0.000000  -0.000000  -0.000004
    15  C    0.352280  -0.065379   0.003678  -0.003430  -0.001685  -0.044859
    16  H   -0.040399   0.003695  -0.000108   0.000010  -0.000079  -0.002386
    17  H   -0.045762  -0.001105  -0.000023  -0.000507   0.002553  -0.001136
    18  H   -0.044303  -0.002140  -0.000072   0.002847  -0.000371  -0.000547
    19  C    4.918195   0.348387  -0.037056  -0.043929  -0.043831   0.698179
    20  C    0.348387   4.909264   0.406149   0.402441   0.398260  -0.043326
    21  H   -0.037056   0.406149   0.568170  -0.030009  -0.026275  -0.002870
    22  H   -0.043929   0.402441  -0.030009   0.586200  -0.033103   0.000448
    23  H   -0.043831   0.398260  -0.026275  -0.033103   0.582580  -0.000844
    24  C    0.698179  -0.043326  -0.002870   0.000448  -0.000844   4.961518
    25  H   -0.036137   0.003365   0.000059  -0.000110  -0.000126   0.402009
    26  C   -0.048262  -0.007535  -0.001944   0.000286   0.000188   0.339923
    27  H    0.000824  -0.002066  -0.001170  -0.000043   0.000056  -0.043816
    28  H    0.000914   0.000169   0.000031  -0.000012   0.000032  -0.043345
              25         26         27         28
     1  C    0.000005   0.326228  -0.040291  -0.045123
     2  H    0.000213  -0.039854  -0.002144   0.004290
     3  H    0.001004  -0.044605   0.004202  -0.002603
     4  C   -0.000155  -0.057375  -0.001438  -0.001851
     5  C    0.000010  -0.000188   0.000317  -0.000392
     6  H   -0.000000  -0.000097  -0.000010  -0.000025
     7  H   -0.000002   0.000027   0.000012   0.000093
     8  H    0.000012   0.000811  -0.000009  -0.000187
     9  C   -0.000002  -0.004367   0.001215   0.000514
    10  H   -0.000000  -0.000116  -0.000044   0.000004
    11  C    0.000000   0.000690   0.000070  -0.000030
    12  H    0.000000  -0.000050   0.000023  -0.000000
    13  H   -0.000001  -0.000212  -0.000251  -0.000008
    14  H    0.000000   0.000091  -0.000079   0.000000
    15  C   -0.006748   0.003152   0.000070  -0.000102
    16  H    0.002177   0.000146   0.000006  -0.000011
    17  H    0.000150  -0.000124   0.000004   0.000012
    18  H    0.000235  -0.000086  -0.000004  -0.000002
    19  C   -0.036137  -0.048262   0.000824   0.000914
    20  C    0.003365  -0.007535  -0.002066   0.000169
    21  H    0.000059  -0.001944  -0.001170   0.000031
    22  H   -0.000110   0.000286  -0.000043  -0.000012
    23  H   -0.000126   0.000188   0.000056   0.000032
    24  C    0.402009   0.339923  -0.043816  -0.043345
    25  H    0.558528  -0.041278   0.003231  -0.003485
    26  C   -0.041278   4.982353   0.414869   0.413768
    27  H    0.003231   0.414869   0.571245  -0.029598
    28  H   -0.003485   0.413768  -0.029598   0.588478
 Mulliken charges:
               1
     1  C   -0.234027
     2  H    0.126411
     3  H    0.115660
     4  C    0.015504
     5  C   -0.339905
     6  H    0.116736
     7  H    0.115819
     8  H    0.115152
     9  C   -0.155170
    10  H    0.116535
    11  C   -0.355618
    12  H    0.121546
    13  H    0.116935
    14  H    0.118240
    15  C   -0.341760
    16  H    0.118408
    17  H    0.116079
    18  H    0.115419
    19  C    0.022846
    20  C   -0.350824
    21  H    0.120970
    22  H    0.118883
    23  H    0.122675
    24  C   -0.160409
    25  H    0.117047
    26  C   -0.236440
    27  H    0.124818
    28  H    0.118470
 Sum of Mulliken charges =  -0.00000
 Mulliken charges with hydrogens summed into heavy atoms:
               1
     1  C    0.008044
     4  C    0.015504
     5  C    0.007802
     9  C   -0.038635
    11  C    0.001103
    15  C    0.008146
    19  C    0.022846
    20  C    0.011704
    24  C   -0.043362
    26  C    0.006848
 Electronic spatial extent (au):  <R**2>=           2423.6450
 Charge=              0.0000 electrons
 Dipole moment (field-independent basis, Debye):
    X=             -0.2949    Y=              0.1262    Z=             -0.0059  Tot=              0.3208
 Quadrupole moment (field-independent basis, Debye-Ang):
   XX=            -64.5124   YY=            -63.6036   ZZ=            -67.0546
   XY=             -0.6110   XZ=             -0.8631   YZ=             -0.4852
 Traceless Quadrupole moment (field-independent basis, Debye-Ang):
   XX=              0.5445   YY=              1.4533   ZZ=             -1.9977
   XY=             -0.6110   XZ=             -0.8631   YZ=             -0.4852
 Octapole moment (field-independent basis, Debye-Ang**2):
  XXX=             -1.3655  YYY=             -2.7200  ZZZ=              0.1856  XYY=              0.5705
  XXY=              4.5374  XXZ=             -2.6533  XZZ=             -1.5756  YZZ=              1.2272
  YYZ=              1.3701  XYZ=              0.7510
 Hexadecapole moment (field-independent basis, Debye-Ang**3):
 XXXX=          -2492.2865 YYYY=           -696.1029 ZZZZ=           -174.8277 XXXY=              2.3460
 XXXZ=            -11.9411 YYYX=              9.3523 YYYZ=             -3.0503 ZZZX=              0.8342
 ZZZY=             -0.0633 XXYY=           -530.4734 XXZZ=           -456.3189 YYZZ=           -139.1718
 XXYZ=             -4.2376 YYXZ=             -3.1995 ZZXY=             -4.6997
 N-N= 5.164360275897D+02 E-N=-1.937505623449D+03  KE= 3.886257133304D+02
 No NMR shielding tensors so no spin-rotation constants.
 Leave Link  601 at Fri Sep 17 14:55:50 2021, MaxMem=   524288000 cpu:               0.3 elap:               0.3
 (Enter /opt/gaussian/g16_legacy/l701.exe)
 ... and contract with generalized density number  2.
 Compute integral first derivatives.
 Leave Link  701 at Fri Sep 17 14:55:50 2021, MaxMem=   524288000 cpu:               0.3 elap:               0.3
 (Enter /opt/gaussian/g16_legacy/l702.exe)
 L702 exits ... SP integral derivatives will be done elsewhere.
 Leave Link  702 at Fri Sep 17 14:55:50 2021, MaxMem=   524288000 cpu:               0.0 elap:               0.1
 (Enter /opt/gaussian/g16_legacy/l703.exe)
 Integral derivatives from FoFJK, PRISM(SPDF).
 Compute integral first derivatives, UseDBF=F ICtDFT=           0.
 Calling FoFJK, ICntrl=  10002127 FMM=F ISym2X=0 I1Cent= 0 IOpClX= 0 NMat=1 NMatS=1 NMatT=0.
 FoFJK:  IHMeth= 1 ICntrl=10002127 DoSepK=F KAlg= 0 I1Cent=           0 FoldK=F
 IRaf=         0 NMat=       1 IRICut=       1 DoRegI=T DoRafI=F ISym2E= 0 IDoP0=0 IntGTp=1.
 FoFCou: FMM=F IPFlag=           0 FMFlag=      100000 FMFlg1=         800
         NFxFlg=           0 DoJE=F BraDBF=F KetDBF=F FulRan=T
         wScrn=  0.000000 ICntrl=  10002127 IOpCl=  0 I1Cent=           0 NGrid=           0
         NMat0=    1 NMatS0=      1 NMatT0=    0 NMatD0=    1 NMtDS0=    0 NMtDT0=    0
 Symmetry not used in FoFCou.
 Leave Link  703 at Fri Sep 17 14:56:25 2021, MaxMem=   524288000 cpu:              34.0 elap:              34.1
 (Enter /opt/gaussian/g16_legacy/l716.exe)
 Dipole        =-9.11456893D-02 6.69314693D-02-4.75752673D-03
 ***** Axes restored to original set *****
 -------------------------------------------------------------------
 Center     Atomic                   Forces (Hartrees/Bohr)
 Number     Number              X              Y              Z
 -------------------------------------------------------------------
      1        6          -0.000749196    0.009251487   -0.001843106
      2        1           0.003000927   -0.002802395   -0.002209198
      3        1           0.001669109   -0.001517296   -0.003061240
      4        6           0.000548227    0.005063386    0.004031783
      5        6           0.001988300    0.002077621   -0.001421923
      6        1          -0.003248332   -0.002535785   -0.000198427
      7        1           0.001452426   -0.002644414   -0.001524122
      8        1          -0.000614856    0.001366128    0.003020701
      9        6           0.001602533   -0.003481130   -0.000063070
     10        1           0.000237016   -0.002700970    0.002299216
     11        6          -0.002260481   -0.000888417   -0.001249886
     12        1          -0.000764084   -0.001610903   -0.002936208
     13        1           0.002173548    0.002203479    0.001297580
     14        1          -0.002272354    0.001564192    0.002073582
     15        6           0.001097840   -0.000366061    0.003274140
     16        1           0.000023850    0.002263075   -0.003768782
     17        1          -0.002631769    0.001835061    0.001009868
     18        1           0.000831505   -0.002878442   -0.001848444
     19        6           0.000323980    0.001003517    0.005234918
     20        6           0.002235179    0.003418549   -0.002029210
     21        1           0.000241882   -0.002915504    0.001852047
     22        1           0.001858339   -0.003060411   -0.000757578
     23        1          -0.002558169    0.001813632    0.000562485
     24        6           0.004518631   -0.001405738   -0.002308043
     25        1          -0.002970746   -0.000443688   -0.001659461
     26        6          -0.002342796   -0.007582053   -0.000912068
     27        1          -0.001832184    0.001935416    0.003020589
     28        1          -0.001558324    0.003037664    0.000113859
 -------------------------------------------------------------------
 Cartesian Forces:  Max     0.009251487 RMS     0.002579573
 Leave Link  716 at Fri Sep 17 14:56:25 2021, MaxMem=   524288000 cpu:               0.1 elap:               0.1
 (Enter /opt/gaussian/g16_legacy/l103.exe)

 GradGradGradGradGradGradGradGradGradGradGradGradGradGradGradGradGradGrad
 Berny optimization.
 FormGI is forming the generalized inverse of G from B-inverse, IUseBI=4.
 Internal  Forces:  Max     0.004894781 RMS     0.001920026
 Search for a local minimum.
 Step number   1 out of a maximum of  138
 All quantities printed in internal units (Hartrees-Bohrs-Radians)
 RMS Force = .19200D-02 SwitMx=.10000D-02 MixMth= 1
 Mixed Optimization -- RFO/linear search
 Second derivative matrix not updated -- first step.
 ITU=  0
     Eigenvalues ---    0.00343   0.00571   0.00670   0.00680   0.00691
     Eigenvalues ---    0.00715   0.00818   0.01219   0.01287   0.01568
     Eigenvalues ---    0.01641   0.02779   0.02785   0.04019   0.04138
     Eigenvalues ---    0.05349   0.05398   0.06978   0.07034   0.07090
     Eigenvalues ---    0.07093   0.07268   0.07300   0.07347   0.07505
     Eigenvalues ---    0.09277   0.09361   0.12766   0.12842   0.15999
     Eigenvalues ---    0.15999   0.16000   0.16000   0.16000   0.16000
     Eigenvalues ---    0.16000   0.16000   0.16000   0.16000   0.16000
     Eigenvalues ---    0.16000   0.16000   0.16000   0.21859   0.21866
     Eigenvalues ---    0.22000   0.22000   0.24994   0.24997   0.24998
     Eigenvalues ---    0.24999   0.29240   0.30876   0.31630   0.31706
     Eigenvalues ---    0.31793   0.31976   0.32796   0.33866   0.33969
     Eigenvalues ---    0.34068   0.34195   0.34218   0.34219   0.34247
     Eigenvalues ---    0.34247   0.34250   0.34251   0.34252   0.34262
     Eigenvalues ---    0.34297   0.34335   0.34548   0.34557   0.34796
     Eigenvalues ---    0.34855   0.55484   0.55580
 RFO step:  Lambda=-2.96302911D-03 EMin= 3.42723563D-03
 Linear search not attempted -- first point.
 Iteration  1 RMS(Cart)=  0.03968216 RMS(Int)=  0.00072270
 Iteration  2 RMS(Cart)=  0.00093443 RMS(Int)=  0.00016631
 Iteration  3 RMS(Cart)=  0.00000043 RMS(Int)=  0.00016631
 ITry= 1 IFail=0 DXMaxC= 1.75D-01 DCOld= 1.00D+10 DXMaxT= 3.00D-01 DXLimC= 3.00D+00 Rises=F
 Variable       Old X    -DE/DX   Delta X   Delta X   Delta X     New X
                                 (Linear)    (Quad)   (Total)
    R1        2.07216  -0.00329   0.00000  -0.00957  -0.00957   2.06259
    R2        2.07556  -0.00278   0.00000  -0.00814  -0.00814   2.06742
    R3        2.86250  -0.00350   0.00000  -0.01124  -0.01124   2.85125
    R4        2.89505   0.00173   0.00000   0.00585   0.00585   2.90090
    R5        2.84825  -0.00047   0.00000  -0.00146  -0.00146   2.84679
    R6        2.54704  -0.00402   0.00000  -0.00721  -0.00721   2.53983
    R7        2.06964  -0.00373   0.00000  -0.01081  -0.01081   2.05882
    R8        2.06910  -0.00216   0.00000  -0.00624  -0.00624   2.06285
    R9        2.06831  -0.00178   0.00000  -0.00516  -0.00516   2.06315
   R10        2.05911  -0.00218   0.00000  -0.00620  -0.00620   2.05291
   R11        2.82712   0.00310   0.00000   0.00938   0.00938   2.83650
   R12        2.06769  -0.00157   0.00000  -0.00455  -0.00455   2.06314
   R13        2.06400  -0.00289   0.00000  -0.00828  -0.00828   2.05572
   R14        2.06891  -0.00259   0.00000  -0.00749  -0.00749   2.06142
   R15        2.06961  -0.00401   0.00000  -0.01162  -0.01162   2.05799
   R16        2.06915  -0.00200   0.00000  -0.00579  -0.00579   2.06336
   R17        2.06907  -0.00197   0.00000  -0.00571  -0.00571   2.06336
   R18        2.84685  -0.00078   0.00000  -0.00242  -0.00242   2.84443
   R19        2.84189  -0.00046   0.00000  -0.00143  -0.00143   2.84046
   R20        2.54620  -0.00323   0.00000  -0.00577  -0.00577   2.54043
   R21        2.06415  -0.00283   0.00000  -0.00814  -0.00814   2.05602
   R22        2.07003  -0.00264   0.00000  -0.00765  -0.00765   2.06238
   R23        2.06908  -0.00194   0.00000  -0.00562  -0.00562   2.06346
   R24        2.06007  -0.00198   0.00000  -0.00565  -0.00565   2.05442
   R25        2.84524  -0.00155   0.00000  -0.00484  -0.00484   2.84040
   R26        2.06915  -0.00277   0.00000  -0.00802  -0.00802   2.06113
   R27        2.07382  -0.00240   0.00000  -0.00699  -0.00699   2.06682
    A1        1.83002   0.00206   0.00000   0.02238   0.02222   1.85224
    A2        1.93012   0.00043   0.00000   0.00930   0.00934   1.93946
    A3        1.91836  -0.00278   0.00000  -0.02022  -0.02026   1.89810
    A4        1.90268  -0.00070   0.00000  -0.00275  -0.00275   1.89993
    A5        1.91999  -0.00194   0.00000  -0.01719  -0.01722   1.90277
    A6        1.95833   0.00284   0.00000   0.00915   0.00919   1.96752
    A7        2.00834   0.00237   0.00000   0.00966   0.00910   2.01743
    A8        2.17078  -0.00489   0.00000  -0.01899  -0.01952   2.15126
    A9        2.10389   0.00254   0.00000   0.01043   0.00985   2.11374
   A10        1.95932  -0.00263   0.00000  -0.01315  -0.01312   1.94620
   A11        1.92479   0.00166   0.00000   0.00903   0.00905   1.93384
   A12        1.92812   0.00227   0.00000   0.01211   0.01213   1.94025
   A13        1.87754   0.00110   0.00000   0.01020   0.01024   1.88778
   A14        1.87697   0.00056   0.00000   0.00567   0.00571   1.88267
   A15        1.89494  -0.00307   0.00000  -0.02469  -0.02469   1.87025
   A16        2.06980  -0.00196   0.00000  -0.01347  -0.01349   2.05630
   A17        2.22498  -0.00185   0.00000  -0.00827  -0.00829   2.21669
   A18        1.98827   0.00381   0.00000   0.02192   0.02190   2.01017
   A19        1.91726   0.00395   0.00000   0.02329   0.02326   1.94052
   A20        1.98136  -0.00301   0.00000  -0.01853  -0.01844   1.96291
   A21        1.91004   0.00238   0.00000   0.01560   0.01554   1.92558
   A22        1.89284  -0.00095   0.00000  -0.00760  -0.00751   1.88534
   A23        1.88710  -0.00309   0.00000  -0.01882  -0.01900   1.86810
   A24        1.87260   0.00054   0.00000   0.00500   0.00507   1.87767
   A25        1.87878   0.00092   0.00000   0.00795   0.00798   1.88676
   A26        1.87921   0.00092   0.00000   0.00934   0.00938   1.88859
   A27        1.96052  -0.00276   0.00000  -0.01378  -0.01374   1.94679
   A28        1.89489  -0.00313   0.00000  -0.02542  -0.02541   1.86948
   A29        1.92351   0.00174   0.00000   0.00872   0.00874   1.93224
   A30        1.92492   0.00220   0.00000   0.01236   0.01238   1.93730
   A31        1.99471   0.00146   0.00000   0.00580   0.00578   2.00048
   A32        2.10581   0.00183   0.00000   0.00726   0.00724   2.11304
   A33        2.18263  -0.00328   0.00000  -0.01294  -0.01297   2.16966
   A34        1.97981  -0.00223   0.00000  -0.01026  -0.01024   1.96957
   A35        1.92084  -0.00000   0.00000  -0.00090  -0.00088   1.91996
   A36        1.92158   0.00230   0.00000   0.01171   0.01174   1.93332
   A37        1.86375   0.00200   0.00000   0.01694   0.01696   1.88071
   A38        1.88437   0.00024   0.00000   0.00329   0.00332   1.88769
   A39        1.89057  -0.00240   0.00000  -0.02156  -0.02154   1.86903
   A40        2.06726  -0.00168   0.00000  -0.01190  -0.01230   2.05496
   A41        2.22715  -0.00225   0.00000  -0.00994  -0.01035   2.21679
   A42        1.98866   0.00395   0.00000   0.02263   0.02221   2.01086
   A43        1.94449   0.00330   0.00000   0.01365   0.01368   1.95816
   A44        1.92606  -0.00264   0.00000  -0.02492  -0.02499   1.90107
   A45        1.92099  -0.00239   0.00000  -0.01485  -0.01504   1.90595
   A46        1.94649  -0.00052   0.00000  -0.00233  -0.00228   1.94421
   A47        1.88057   0.00061   0.00000   0.01706   0.01711   1.89768
   A48        1.84191   0.00155   0.00000   0.01190   0.01163   1.85355
    D1        2.64274   0.00174   0.00000   0.05210   0.05189   2.69463
    D2       -0.47839   0.00076   0.00000  -0.01013  -0.00990  -0.48829
    D3        0.63951  -0.00058   0.00000   0.02162   0.02137   0.66089
    D4       -2.48161  -0.00156   0.00000  -0.04062  -0.04042  -2.52203
    D5       -1.49170   0.00048   0.00000   0.03926   0.03905  -1.45265
[...]
                 (A) (A) (A) (A) (A) (A) (A) (A) (A) (A) (A) (A)
                 (A) (A) (A) (A) (A) (A) (A) (A) (A) (A) (A) (A)
                 (A) (A) (A) (A) (A) (A) (A) (A) (A) (A) (A) (A)
                 (A) (A) (A) (A) (A) (A) (A) (A) (A) (A) (A) (A)
                 (A) (A) (A) (A) (A) (A) (A) (A) (A) (A) (A) (A)
                 (A) (A) (A) (A) (A) (A) (A) (A) (A) (A) (A) (A)
                 (A) (A) (A) (A) (A) (A) (A) (A) (A) (A) (A) (A)
                 (A) (A) (A) (A) (A) (A) (A) (A) (A) (A) (A) (A)
                 (A) (A) (A) (A) (A) (A) (A) (A) (A) (A) (A) (A)
                 (A) (A) (A) (A) (A) (A) (A) (A) (A) (A) (A) (A)
                 (A) (A) (A) (A) (A) (A) (A) (A) (A) (A) (A) (A)
                 (A) (A) (A) (A) (A) (A) (A) (A) (A) (A) (A) (A)
                 (A) (A) (A) (A) (A) (A) (A) (A) (A) (A) (A) (A)
                 (A) (A) (A) (A) (A) (A) (A) (A) (A)
 The electronic state is 1-A.
 Alpha  occ. eigenvalues --  -11.23020 -11.22460 -11.21868 -11.21730 -11.21712
 Alpha  occ. eigenvalues --  -11.21539 -11.21506 -11.21436 -11.21417 -11.21348
 Alpha  occ. eigenvalues --   -1.10821  -1.08492  -1.01823  -0.98143  -0.93838
 Alpha  occ. eigenvalues --   -0.91939  -0.86963  -0.82855  -0.70494  -0.69519
 Alpha  occ. eigenvalues --   -0.64988  -0.61512  -0.60591  -0.58878  -0.58366
 Alpha  occ. eigenvalues --   -0.56774  -0.55298  -0.54966  -0.53295  -0.52261
 Alpha  occ. eigenvalues --   -0.51859  -0.51173  -0.50832  -0.49581  -0.48519
 Alpha  occ. eigenvalues --   -0.46073  -0.44624  -0.33371  -0.31514
 Alpha virt. eigenvalues --    0.18142   0.19779   0.22152   0.24486   0.25192
 Alpha virt. eigenvalues --    0.27439   0.28535   0.28922   0.30318   0.30811
 Alpha virt. eigenvalues --    0.31477   0.32261   0.33202   0.33794   0.34383
 Alpha virt. eigenvalues --    0.35458   0.36114   0.36962   0.39185   0.40602
 Alpha virt. eigenvalues --    0.41328   0.42631   0.43685   0.44253   0.45395
 Alpha virt. eigenvalues --    0.51702   0.54378   0.61070   0.62576   0.70520
 Alpha virt. eigenvalues --    0.71073   0.72196   0.73768   0.76075   0.76177
 Alpha virt. eigenvalues --    0.76620   0.79010   0.79474   0.81070   0.82306
 Alpha virt. eigenvalues --    0.83713   0.85579   0.89117   0.91091   0.91343
 Alpha virt. eigenvalues --    0.92820   0.94745   0.97065   0.98284   0.98818
 Alpha virt. eigenvalues --    0.99710   1.00468   1.01911   1.03844   1.06577
 Alpha virt. eigenvalues --    1.08019   1.08221   1.09393   1.11664   1.12687
 Alpha virt. eigenvalues --    1.13026   1.13870   1.14856   1.15402   1.16045
 Alpha virt. eigenvalues --    1.16257   1.16619   1.18722   1.19116   1.20671
 Alpha virt. eigenvalues --    1.20953   1.23032   1.23885   1.25765   1.28153
 Alpha virt. eigenvalues --    1.34332   1.41723   1.42153   1.44890   1.46395
 Alpha virt. eigenvalues --    1.48456   1.54136   1.55360   1.57256   1.58165
 Alpha virt. eigenvalues --    1.61459   1.63397   1.66485   1.69046   1.69645
 Alpha virt. eigenvalues --    1.73917   1.82243   1.91111   1.93363   1.96231
 Alpha virt. eigenvalues --    1.98688   2.01467   2.02277   2.03942   2.08565
 Alpha virt. eigenvalues --    2.09706   2.10748   2.11744   2.13037   2.14903
 Alpha virt. eigenvalues --    2.15780   2.16940   2.19854   2.23666   2.28347
 Alpha virt. eigenvalues --    2.29590   2.30325   2.33235   2.35347   2.35688
 Alpha virt. eigenvalues --    2.35978   2.36098   2.38923   2.40264   2.41259
 Alpha virt. eigenvalues --    2.42195   2.43169   2.44154   2.45371   2.46084
 Alpha virt. eigenvalues --    2.47201   2.49167   2.49622   2.51174   2.54099
 Alpha virt. eigenvalues --    2.57315   2.58365   2.61888   2.63241   2.64107
 Alpha virt. eigenvalues --    2.67127   2.68175   2.71776   2.73352   2.73474
 Alpha virt. eigenvalues --    2.75815   2.77410   2.80796   2.82634   2.85354
 Alpha virt. eigenvalues --    2.87137   2.89441   2.92178   2.93739   2.94867
 Alpha virt. eigenvalues --    2.97869   2.99094   3.00960   3.02677   3.05807
 Alpha virt. eigenvalues --    3.06402   3.07703   3.09315   3.13762   3.17093
 Alpha virt. eigenvalues --    3.17589   3.19238   3.20046   3.21242   3.22334
 Alpha virt. eigenvalues --    3.24167   3.25050   3.26607   3.27420   3.37866
 Alpha virt. eigenvalues --    3.40355   3.46023   3.46902   3.56200   3.58183
 Alpha virt. eigenvalues --    3.59499   3.62406   3.67928   3.75494   3.78622
 Alpha virt. eigenvalues --    3.80005   3.81570   3.82569   3.83286   3.83898
 Alpha virt. eigenvalues --    3.84750   3.86481   3.87645   3.89820   3.91558
 Alpha virt. eigenvalues --    3.97645   4.59389   4.63170   4.74472   4.82572
 Alpha virt. eigenvalues --    4.88928   4.92582   4.93409   5.07840   5.10766
 Alpha virt. eigenvalues --    5.17766
          Condensed to atoms (all electrons):
               1          2          3          4          5          6
     1  C    5.004767   0.411715   0.414473   0.337355  -0.056085   0.003801
     2  H    0.411715   0.572983  -0.028296  -0.038988   0.003071  -0.000108
     3  H    0.414473  -0.028296   0.587507  -0.046308  -0.004587   0.000106
     4  C    0.337355  -0.038988  -0.046308   4.952603   0.351934  -0.042765
     5  C   -0.056085   0.003071  -0.004587   0.351934   4.891804   0.407087
     6  H    0.003801  -0.000108   0.000106  -0.042765   0.407087   0.568858
     7  H   -0.003698  -0.000034   0.002378  -0.041506   0.397495  -0.026764
     8  H    0.000011  -0.000005  -0.000489  -0.045679   0.400946  -0.027466
     9  C   -0.047991  -0.001860   0.002531   0.697840  -0.046054  -0.002890
    10  H    0.003272   0.000031  -0.000118  -0.037842  -0.006525   0.002385
    11  C   -0.007749  -0.002811   0.000160  -0.050271   0.003364   0.000132
    12  H    0.000152   0.000184   0.000017  -0.000627  -0.000106  -0.000006
    13  H   -0.001745  -0.001657   0.000030  -0.000691   0.000109   0.000005
    14  H    0.000310  -0.000067  -0.000013  -0.000247  -0.000095  -0.000006
    15  C   -0.000099  -0.000043  -0.000004   0.000001  -0.000000   0.000000
    16  H   -0.000003  -0.000002   0.000003   0.000000  -0.000000   0.000000
    17  H   -0.000005   0.000002   0.000000   0.000000  -0.000000   0.000000
    18  H    0.000024  -0.000007  -0.000002  -0.000000   0.000000  -0.000000
    19  C   -0.004325   0.001388   0.000787   0.000041  -0.000003   0.000000
    20  C    0.000587   0.000200  -0.000015  -0.000018  -0.000000  -0.000000
    21  H   -0.000302  -0.000131  -0.000016  -0.000011  -0.000000   0.000000
    22  H    0.000130  -0.000135  -0.000002  -0.000005   0.000000  -0.000000
    23  H   -0.000040   0.000022   0.000000   0.000001  -0.000000   0.000000
    24  C   -0.061827  -0.000504  -0.000900   0.006443  -0.000149   0.000004
    25  H    0.000175   0.000111   0.001011  -0.000152   0.000010  -0.000000
    26  C    0.332330  -0.041801  -0.046074  -0.055544  -0.000661  -0.000109
    27  H   -0.042370  -0.003118   0.004477  -0.001813   0.000243  -0.000005
    28  H   -0.046841   0.004515  -0.001931  -0.002075  -0.000289  -0.000050
               7          8          9         10         11         12
     1  C   -0.003698   0.000011  -0.047991   0.003272  -0.007749   0.000152
     2  H   -0.000034  -0.000005  -0.001860   0.000031  -0.002811   0.000184
     3  H    0.002378  -0.000489   0.002531  -0.000118   0.000160   0.000017
     4  C   -0.041506  -0.045679   0.697840  -0.037842  -0.050271  -0.000627
     5  C    0.397495   0.400946  -0.046054  -0.006525   0.003364  -0.000106
     6  H   -0.026764  -0.027466  -0.002890   0.002385   0.000132  -0.000006
     7  H    0.591921  -0.037541  -0.000373   0.000216  -0.000105   0.000017
     8  H   -0.037541   0.596034  -0.001011   0.000135  -0.000101  -0.000004
     9  C   -0.000373  -0.001011   4.938970   0.404494   0.340494  -0.041523
    10  H    0.000216   0.000135   0.404494   0.558671  -0.041279  -0.001122
    11  C   -0.000105  -0.000101   0.340494  -0.041279   4.900974   0.401144
    12  H    0.000017  -0.000004  -0.041523  -0.001122   0.401144   0.583648
    13  H    0.000002  -0.000003  -0.043903   0.003299   0.409079  -0.027132
    14  H   -0.000004   0.000017  -0.041805  -0.001264   0.402169  -0.035462
    15  C   -0.000000  -0.000000  -0.000000   0.000000  -0.000000   0.000000
    16  H   -0.000000  -0.000000  -0.000000   0.000000   0.000000  -0.000000
    17  H    0.000000   0.000000   0.000000   0.000000   0.000000   0.000000
    18  H   -0.000000   0.000000   0.000000  -0.000000  -0.000000  -0.000000
    19  C    0.000000   0.000000  -0.000001   0.000000   0.000013  -0.000000
    20  C    0.000000  -0.000000   0.000015  -0.000000  -0.000147   0.000004
    21  H   -0.000000   0.000000  -0.000045   0.000000   0.000074  -0.000013
    22  H   -0.000000   0.000000   0.000000  -0.000000  -0.000009  -0.000000
    23  H    0.000000  -0.000000   0.000000   0.000000   0.000003   0.000000
    24  C    0.000004  -0.000111   0.000114   0.000002  -0.000031   0.000002
    25  H   -0.000001   0.000015  -0.000002  -0.000000   0.000000   0.000000
    26  C    0.000086   0.000609  -0.004911  -0.000113   0.000577  -0.000037
    27  H    0.000006  -0.000015   0.001406  -0.000046  -0.000082   0.000037
    28  H    0.000058   0.000197   0.000760   0.000001  -0.000033  -0.000000
              13         14         15         16         17         18
     1  C   -0.001745   0.000310  -0.000099  -0.000003  -0.000005   0.000024
     2  H   -0.001657  -0.000067  -0.000043  -0.000002   0.000002  -0.000007
     3  H    0.000030  -0.000013  -0.000004   0.000003   0.000000  -0.000002
     4  C   -0.000691  -0.000247   0.000001   0.000000   0.000000  -0.000000
     5  C    0.000109  -0.000095  -0.000000  -0.000000  -0.000000   0.000000
     6  H    0.000005  -0.000006   0.000000   0.000000   0.000000  -0.000000
     7  H    0.000002  -0.000004  -0.000000  -0.000000   0.000000  -0.000000
     8  H   -0.000003   0.000017  -0.000000  -0.000000   0.000000   0.000000
     9  C   -0.043903  -0.041805  -0.000000  -0.000000   0.000000   0.000000
    10  H    0.003299  -0.001264   0.000000   0.000000   0.000000  -0.000000
    11  C    0.409079   0.402169  -0.000000   0.000000   0.000000  -0.000000
    12  H   -0.027132  -0.035462   0.000000  -0.000000   0.000000  -0.000000
    13  H    0.577164  -0.029956   0.000000  -0.000000  -0.000000  -0.000000
    14  H   -0.029956   0.586720  -0.000000  -0.000000  -0.000000   0.000000
    15  C    0.000000  -0.000000   4.900112   0.406218   0.398811   0.398238
    16  H   -0.000000  -0.000000   0.406218   0.566018  -0.026549  -0.026703
    17  H   -0.000000  -0.000000   0.398811  -0.026549   0.593607  -0.037806
    18  H   -0.000000   0.000000   0.398238  -0.026703  -0.037806   0.594542
    19  C   -0.000026   0.000001   0.353753  -0.041639  -0.044274  -0.043899
    20  C   -0.000000  -0.000015  -0.064931   0.003785  -0.001201  -0.001975
    21  H    0.000412   0.000114   0.003725  -0.000113  -0.000031  -0.000068
    22  H    0.000079   0.000000  -0.002632  -0.000032  -0.000476   0.002756
    23  H   -0.000008  -0.000000  -0.002223  -0.000053   0.002766  -0.000456
    24  C    0.000026  -0.000009  -0.044415  -0.002632  -0.001270  -0.000422
    25  H   -0.000002   0.000000  -0.006963   0.002335   0.000187   0.000182
    26  C   -0.000737   0.000163   0.003126   0.000148  -0.000131  -0.000068
    27  H   -0.000475  -0.000140   0.000051   0.000007   0.000007  -0.000005
    28  H   -0.000010  -0.000000  -0.000094  -0.000010   0.000009  -0.000002
              19         20         21         22         23         24
     1  C   -0.004325   0.000587  -0.000302   0.000130  -0.000040  -0.061827
     2  H    0.001388   0.000200  -0.000131  -0.000135   0.000022  -0.000504
     3  H    0.000787  -0.000015  -0.000016  -0.000002   0.000000  -0.000900
     4  C    0.000041  -0.000018  -0.000011  -0.000005   0.000001   0.006443
     5  C   -0.000003  -0.000000  -0.000000   0.000000  -0.000000  -0.000149
     6  H    0.000000  -0.000000   0.000000  -0.000000   0.000000   0.000004
     7  H    0.000000   0.000000  -0.000000  -0.000000   0.000000   0.000004
     8  H    0.000000  -0.000000   0.000000   0.000000  -0.000000  -0.000111
     9  C   -0.000001   0.000015  -0.000045   0.000000   0.000000   0.000114
    10  H    0.000000  -0.000000   0.000000  -0.000000   0.000000   0.000002
    11  C    0.000013  -0.000147   0.000074  -0.000009   0.000003  -0.000031
    12  H   -0.000000   0.000004  -0.000013  -0.000000   0.000000   0.000002
    13  H   -0.000026  -0.000000   0.000412   0.000079  -0.000008   0.000026
    14  H    0.000001  -0.000015   0.000114   0.000000  -0.000000  -0.000009
    15  C    0.353753  -0.064931   0.003725  -0.002632  -0.002223  -0.044415
    16  H   -0.041639   0.003785  -0.000113  -0.000032  -0.000053  -0.002632
    17  H   -0.044274  -0.001201  -0.000031  -0.000476   0.002766  -0.001270
    18  H   -0.043899  -0.001975  -0.000068   0.002756  -0.000456  -0.000422
    19  C    4.914193   0.350333  -0.037848  -0.043385  -0.043537   0.697734
    20  C    0.350333   4.907254   0.407154   0.401208   0.399852  -0.044248
    21  H   -0.037848   0.407154   0.568221  -0.028659  -0.026060  -0.003253
    22  H   -0.043385   0.401208  -0.028659   0.587442  -0.035759  -0.000031
    23  H   -0.043537   0.399852  -0.026060  -0.035759   0.584669  -0.000365
    24  C    0.697734  -0.044248  -0.003253  -0.000031  -0.000365   4.962747
    25  H   -0.038449   0.003528   0.000061  -0.000121  -0.000121   0.403391
    26  C   -0.050100  -0.008144  -0.002069   0.000367   0.000117   0.338699
    27  H    0.000438  -0.002693  -0.001675  -0.000076   0.000113  -0.044060
    28  H    0.001583   0.000195   0.000058  -0.000014   0.000021  -0.041394
              25         26         27         28
     1  C    0.000175   0.332330  -0.042370  -0.046841
     2  H    0.000111  -0.041801  -0.003118   0.004515
     3  H    0.001011  -0.046074   0.004477  -0.001931
     4  C   -0.000152  -0.055544  -0.001813  -0.002075
     5  C    0.000010  -0.000661   0.000243  -0.000289
     6  H   -0.000000  -0.000109  -0.000005  -0.000050
     7  H   -0.000001   0.000086   0.000006   0.000058
     8  H    0.000015   0.000609  -0.000015   0.000197
     9  C   -0.000002  -0.004911   0.001406   0.000760
    10  H   -0.000000  -0.000113  -0.000046   0.000001
    11  C    0.000000   0.000577  -0.000082  -0.000033
    12  H    0.000000  -0.000037   0.000037  -0.000000
    13  H   -0.000002  -0.000737  -0.000475  -0.000010
    14  H    0.000000   0.000163  -0.000140  -0.000000
    15  C   -0.006963   0.003126   0.000051  -0.000094
    16  H    0.002335   0.000148   0.000007  -0.000010
    17  H    0.000187  -0.000131   0.000007   0.000009
    18  H    0.000182  -0.000068  -0.000005  -0.000002
    19  C   -0.038449  -0.050100   0.000438   0.001583
    20  C    0.003528  -0.008144  -0.002693   0.000195
    21  H    0.000061  -0.002069  -0.001675   0.000058
    22  H   -0.000121   0.000367  -0.000076  -0.000014
    23  H   -0.000121   0.000117   0.000113   0.000021
    24  C    0.403391   0.338699  -0.044060  -0.041394
    25  H    0.557388  -0.039113   0.003152  -0.003424
    26  C   -0.039113   4.979544   0.415850   0.413482
    27  H    0.003152   0.415850   0.575347  -0.028362
    28  H   -0.003424   0.413482  -0.028362   0.585267
 Mulliken charges:
               1
     1  C   -0.236021
     2  H    0.125346
     3  H    0.115272
     4  C    0.018322
     5  C   -0.341505
     6  H    0.117792
     7  H    0.117844
     8  H    0.114461
     9  C   -0.154256
    10  H    0.115801
    11  C   -0.355567
    12  H    0.120830
    13  H    0.116140
    14  H    0.119588
    15  C   -0.342631
    16  H    0.119222
    17  H    0.116356
    18  H    0.115672
    19  C    0.027222
    20  C   -0.350727
    21  H    0.120474
    22  H    0.119352
    23  H    0.121058
    24  C   -0.163543
    25  H    0.116803
    26  C   -0.235486
    27  H    0.123802
    28  H    0.118380
 Sum of Mulliken charges =  -0.00000
 Mulliken charges with hydrogens summed into heavy atoms:
               1
     1  C    0.004596
     4  C    0.018322
     5  C    0.008593
     9  C   -0.038454
    11  C    0.000991
    15  C    0.008618
    19  C    0.027222
    20  C    0.010156
    24  C   -0.046740
    26  C    0.006696
 Electronic spatial extent (au):  <R**2>=           2384.0046
 Charge=             -0.0000 electrons
 Dipole moment (field-independent basis, Debye):
    X=             -0.3027    Y=              0.1253    Z=              0.0460  Tot=              0.3308
 Quadrupole moment (field-independent basis, Debye-Ang):
   XX=            -64.3024   YY=            -63.2901   ZZ=            -67.3956
   XY=             -0.7521   XZ=             -1.2367   YZ=             -0.3487
 Traceless Quadrupole moment (field-independent basis, Debye-Ang):
   XX=              0.6937   YY=              1.7059   ZZ=             -2.3996
   XY=             -0.7521   XZ=             -1.2367   YZ=             -0.3487
 Octapole moment (field-independent basis, Debye-Ang**2):
  XXX=             -2.6682  YYY=             -2.9989  ZZZ=              0.9000  XYY=              0.6415
  XXY=              4.0909  XXZ=             -2.0918  XZZ=             -1.2120  YZZ=              1.4955
  YYZ=              0.6110  XYZ=              0.3641
 Hexadecapole moment (field-independent basis, Debye-Ang**3):
 XXXX=          -2435.7140 YYYY=           -693.4928 ZZZZ=           -166.6415 XXXY=             -2.3046
 XXXZ=            -14.7514 YYYX=             11.0527 YYYZ=             -1.4214 ZZZX=             -2.8120
 ZZZY=             -0.6411 XXYY=           -520.1242 XXZZ=           -449.2337 YYZZ=           -138.3649
 XXYZ=             -4.2785 YYXZ=             -0.5785 ZZXY=             -5.9188
 N-N= 5.190880545126D+02 E-N=-1.942888847748D+03  KE= 3.887471633891D+02
 No NMR shielding tensors so no spin-rotation constants.
 Leave Link  601 at Fri Sep 17 16:07:38 2021, MaxMem=   524288000 cpu:               0.4 elap:               0.7
 (Enter /opt/gaussian/g16_legacy/l9999.exe)
 1\1\GINC-TRUENO91\FOpt\RMP2-FC\6-31G(d,p)\C10H18\JRAMOS\17-Sep-2021\0\
 \#p opt mp2/6-31g(d,p)\\Conformer number 2787. Energy MM = 23.242 kcal
 /mol\\0,1\C,0.4334207173,0.6907246044,0.8049262933\H,-0.5989387099,0.9
 813481861,0.6042091443\H,0.4996248366,0.5245242158,1.8840379858\C,1.40
 14169882,1.7759675503,0.405777419\C,2.6645473685,1.8496096334,1.219736
 8649\H,3.3486962656,2.602341293,0.8300517152\H,2.4419681792,2.09433422
 83,2.2605987312\H,3.1843506123,0.8889503554,1.2236697343\C,1.200456220
 8,2.6023205632,-0.6376339951\H,1.9735543801,3.3332957809,-0.8579464359
 \C,0.0111034802,2.6298927199,-1.5490186026\H,-0.4818340661,3.603486223
 4,-1.5191884399\H,-0.7256269189,1.8723365354,-1.2914880267\H,0.3147911
 635,2.4595087114,-2.5836436656\C,-2.1410654907,-3.2559137432,0.6161622
 44\H,-1.6720102372,-3.6367669231,1.5220853397\H,-2.2622105222,-4.08717
 80099,-0.0821342922\H,-3.1446078694,-2.9072760708,0.8702541732\C,-1.33
 04597727,-2.151022358,-0.0031781494\C,-1.9133693055,-1.5738611504,-1.2
 633230423\H,-1.3217719958,-0.7572164205,-1.6693375684\H,-2.9209553399,
 -1.1976120242,-1.0734745612\H,-2.0041467173,-2.3447960587,-2.031825473
 8\C,-0.1760515536,-1.7427315196,0.5566486055\H,0.1290278758,-2.2244134
 946,1.482252108\C,0.7172549605,-0.6373046364,0.0771487732\H,0.61202052
 25,-0.4752525354,-0.9963030704\H,1.7609149283,-0.9175956563,0.24283619
 19\\Version=EM64L-G16RevA.03\State=1-A\HF=-389.1567534\MP2=-390.573864
 6\RMSD=5.149e-09\RMSF=3.233e-06\Dipole=-0.0970383,-0.0480135,-0.042353
 1\PG=C01 [X(C10H18)]\\@


 LIVE PURE, SPEAK TRUE, RIGHT WRONG, FOLLOW THE KING...
 ELSE, WHEREFORE BORN......
           IDYLLS OF THE KING, TENNYSON
 Job cpu time:       0 days  1 hours 17 minutes 18.2 seconds.
 Elapsed time:       0 days  1 hours 17 minutes 23.7 seconds.
 File lengths (MBytes):  RWF=     32 Int=      0 D2E=      0 Chk=      7 Scr=      1
 Normal termination of Gaussian 16 at Fri Sep 17 16:07:39 2021.
