 Entering Gaussian System, Link 0=/opt/gaussian/g16_legacy/g16
 Input=01-IsoP_2655_gaussian.com
 Output=01-IsoP_2655_gaussian.log
 Initial command:
 /opt/gaussian/g16_legacy/l1.exe "/scratch-local/jramos/2661364/Gau-11657.inp" -scrdir="/scratch-local/jramos/2661364/"
 Entering Link 1 = /opt/gaussian/g16_legacy/l1.exe PID=     11658.
  
 Copyright (c) 1988,1990,1992,1993,1995,1998,2003,2009,2016,
            Gaussian, Inc.  All Rights Reserved.
  
 This is part of the Gaussian(R) 16 program.  It is based on
 the Gaussian(R) 09 system (copyright 2009, Gaussian, Inc.),
 the Gaussian(R) 03 system (copyright 2003, Gaussian, Inc.),
 the Gaussian(R) 98 system (copyright 1998, Gaussian, Inc.),
 the Gaussian(R) 94 system (copyright 1995, Gaussian, Inc.),
 the Gaussian 92(TM) system (copyright 1992, Gaussian, Inc.),
 the Gaussian 90(TM) system (copyright 1990, Gaussian, Inc.),
 the Gaussian 88(TM) system (copyright 1988, Gaussian, Inc.),
 the Gaussian 86(TM) system (copyright 1986, Carnegie Mellon
 University), and the Gaussian 82(TM) system (copyright 1983,
 Carnegie Mellon University). Gaussian is a federally registered
 trademark of Gaussian, Inc.
  
 This software contains proprietary and confidential information,
 including trade secrets, belonging to Gaussian, Inc.
  
 This software is provided under written license and may be
 used, copied, transmitted, or stored only in accord with that
 written license.
  
 The following legend is applicable only to US Government
 contracts under FAR:
  
                    RESTRICTED RIGHTS LEGEND
  
 Use, reproduction and disclosure by the US Government is
 subject to restrictions as set forth in subparagraphs (a)
 and (c) of the Commercial Computer Software - Restricted
 Rights clause in FAR 52.227-19.
  
 Gaussian, Inc.
 340 Quinnipiac St., Bldg. 40, Wallingford CT 06492
  
  
 ---------------------------------------------------------------
 Warning -- This program may not be used in any manner that
 competes with the business of Gaussian, Inc. or will provide
 assistance to any competitor of Gaussian, Inc.  The licensee
 of this program is prohibited from giving any competitor of
 Gaussian, Inc. access to this program.  By using this program,
 the user acknowledges that Gaussian, Inc. is engaged in the
 business of creating and licensing software in the field of
 computational chemistry and represents and warrants to the
 licensee that it is not a competitor of Gaussian, Inc. and that
 it will not use this program in any manner prohibited above.
 ---------------------------------------------------------------
  

 Cite this work as:
 Gaussian 16, Revision A.03,
 M. J. Frisch, G. W. Trucks, H. B. Schlegel, G. E. Scuseria, 
 M. A. Robb, J. R. Cheeseman, G. Scalmani, V. Barone, 
 G. A. Petersson, H. Nakatsuji, X. Li, M. Caricato, A. V. Marenich, 
 J. Bloino, B. G. Janesko, R. Gomperts, B. Mennucci, H. P. Hratchian, 
 J. V. Ortiz, A. F. Izmaylov, J. L. Sonnenberg, D. Williams-Young, 
 F. Ding, F. Lipparini, F. Egidi, J. Goings, B. Peng, A. Petrone, 
 T. Henderson, D. Ranasinghe, V. G. Zakrzewski, J. Gao, N. Rega, 
 G. Zheng, W. Liang, M. Hada, M. Ehara, K. Toyota, R. Fukuda, 
 J. Hasegawa, M. Ishida, T. Nakajima, Y. Honda, O. Kitao, H. Nakai, 
 T. Vreven, K. Throssell, J. A. Montgomery, Jr., J. E. Peralta, 
 F. Ogliaro, M. J. Bearpark, J. J. Heyd, E. N. Brothers, K. N. Kudin, 
 V. N. Staroverov, T. A. Keith, R. Kobayashi, J. Normand, 
 K. Raghavachari, A. P. Rendell, J. C. Burant, S. S. Iyengar, 
 J. Tomasi, M. Cossi, J. M. Millam, M. Klene, C. Adamo, R. Cammi, 
 J. W. Ochterski, R. L. Martin, K. Morokuma, O. Farkas, 
 J. B. Foresman, and D. J. Fox, Gaussian, Inc., Wallingford CT, 2016.
 
 ******************************************
 Gaussian 16:  EM64L-G16RevA.03 25-Dec-2016
                17-Sep-2021 
 ******************************************
 %chk=01-IsoP_2655_gaussian.chk
 %nproc=1
 Will use up to    1 processors via shared memory.
 %mem=4000Mb
 ---------------------
 #p opt mp2/6-31g(d,p)
 ---------------------
 1/18=20,19=15,38=1/1,3;
 2/9=110,12=2,17=6,18=5,40=1/2;
 3/5=1,6=6,7=101,11=9,25=1,30=1,71=1/1,2,3;
 4//1;
 5/5=2,38=5/2;
 8/6=4,10=2/1;
 9/15=2,16=-3/6;
 10/5=1/2;
 6/7=2,8=2,9=2,10=2/1;
 7/12=2/1,2,3,16;
 1/18=20,19=15/3(2);
 2/9=110/2;
 99//99;
 2/9=110/2;
 3/5=1,6=6,7=101,11=9,25=1,30=1,71=1/1,2,3;
 4/5=5,16=3,69=1/1;
 5/5=2,38=5/2;
 8/6=4,10=2/1;
 9/15=2,16=-3/6;
 10/5=1/2;
 7/12=2/1,2,3,16;
 1/18=20,19=15/3(-8);
 2/9=110/2;
 6/7=2,8=2,9=2,10=2/1;
 99//99;
 Leave Link    1 at Fri Sep 17 14:22:30 2021, MaxMem=   524288000 cpu:               0.0 elap:               0.1
 (Enter /opt/gaussian/g16_legacy/l101.exe)
 --------------------------------------------------
 Conformer number 2655. Energy MM = 23.242 kcal/mol
 --------------------------------------------------
 Symbolic Z-matrix:
 Charge =  0 Multiplicity = 1
 C                    -0.7839   -0.7569    0.511 
 H                    -0.6662   -1.6616    1.1226 
 H                    -0.6275   -1.0931   -0.521 
 C                    -2.1891   -0.2201    0.6892 
 C                    -2.754    -0.3583    2.0797 
 H                    -2.7836   -1.4124    2.3743 
 H                    -2.1364    0.1876    2.7998 
 H                    -3.7735    0.0348    2.1543 
 C                    -2.9259    0.3261   -0.2984 
 H                    -3.9371    0.6619   -0.0698 
 C                    -2.5151    0.5611   -1.7176 
 H                    -2.7065    1.6056   -1.9841 
 H                    -1.4561    0.3677   -1.9025 
 H                    -3.1049   -0.0742   -2.3852 
 C                     3.9135   -0.6439   -0.2803 
 H                     4.0471   -1.2711   -1.1678 
 H                     4.0867   -1.2721    0.5998 
 H                     4.6808    0.1372   -0.2867 
 C                     2.5403   -0.0244   -0.2802 
 C                     2.2586    0.8555   -1.4668 
 H                     2.4663    0.3122   -2.3951 
 H                     1.2203    1.1901   -1.5227 
 H                     2.8984    1.7434   -1.4371 
 C                     1.6713   -0.2802    0.7173 
 H                     1.9827   -0.9516    1.5176 
 C                     0.2827    0.2751    0.891 
 H                     0.1434    1.1962    0.3156 
 H                     0.1677    0.5654    1.943 
 
 ITRead=  0  0  0  0  0  0  0  0  0  0  0  0  0  0  0  0  0  0  0  0
 ITRead=  0  0  0  0  0  0  0  0
 MicOpt= -1 -1 -1 -1 -1 -1 -1 -1 -1 -1 -1 -1 -1 -1 -1 -1 -1 -1 -1 -1
 MicOpt= -1 -1 -1 -1 -1 -1 -1 -1
 NAtoms=     28 NQM=       28 NQMF=       0 NMMI=      0 NMMIF=      0
                NMic=       0 NMicF=      0.
                    Isotopes and Nuclear Properties:
 (Nuclear quadrupole moments (NQMom) in fm**2, nuclear magnetic moments (NMagM)
  in nuclear magnetons)

  Atom         1           2           3           4           5           6           7           8           9          10
 IAtWgt=          12           1           1          12          12           1           1           1          12           1
 AtmWgt=  12.0000000   1.0078250   1.0078250  12.0000000  12.0000000   1.0078250   1.0078250   1.0078250  12.0000000   1.0078250
 NucSpn=           0           1           1           0           0           1           1           1           0           1
 AtZEff=  -0.0000000  -0.0000000  -0.0000000  -0.0000000  -0.0000000  -0.0000000  -0.0000000  -0.0000000  -0.0000000  -0.0000000
 NQMom=    0.0000000   0.0000000   0.0000000   0.0000000   0.0000000   0.0000000   0.0000000   0.0000000   0.0000000   0.0000000
 NMagM=    0.0000000   2.7928460   2.7928460   0.0000000   0.0000000   2.7928460   2.7928460   2.7928460   0.0000000   2.7928460
 AtZNuc=   6.0000000   1.0000000   1.0000000   6.0000000   6.0000000   1.0000000   1.0000000   1.0000000   6.0000000   1.0000000

  Atom        11          12          13          14          15          16          17          18          19          20
 IAtWgt=          12           1           1           1          12           1           1           1          12          12
 AtmWgt=  12.0000000   1.0078250   1.0078250   1.0078250  12.0000000   1.0078250   1.0078250   1.0078250  12.0000000  12.0000000
 NucSpn=           0           1           1           1           0           1           1           1           0           0
 AtZEff=  -0.0000000  -0.0000000  -0.0000000  -0.0000000  -0.0000000  -0.0000000  -0.0000000  -0.0000000  -0.0000000  -0.0000000
 NQMom=    0.0000000   0.0000000   0.0000000   0.0000000   0.0000000   0.0000000   0.0000000   0.0000000   0.0000000   0.0000000
 NMagM=    0.0000000   2.7928460   2.7928460   2.7928460   0.0000000   2.7928460   2.7928460   2.7928460   0.0000000   0.0000000
 AtZNuc=   6.0000000   1.0000000   1.0000000   1.0000000   6.0000000   1.0000000   1.0000000   1.0000000   6.0000000   6.0000000

  Atom        21          22          23          24          25          26          27          28
 IAtWgt=           1           1           1          12           1          12           1           1
 AtmWgt=   1.0078250   1.0078250   1.0078250  12.0000000   1.0078250  12.0000000   1.0078250   1.0078250
 NucSpn=           1           1           1           0           1           0           1           1
 AtZEff=  -0.0000000  -0.0000000  -0.0000000  -0.0000000  -0.0000000  -0.0000000  -0.0000000  -0.0000000
 NQMom=    0.0000000   0.0000000   0.0000000   0.0000000   0.0000000   0.0000000   0.0000000   0.0000000
 NMagM=    2.7928460   2.7928460   2.7928460   0.0000000   2.7928460   0.0000000   2.7928460   2.7928460
 AtZNuc=   1.0000000   1.0000000   1.0000000   6.0000000   1.0000000   6.0000000   1.0000000   1.0000000
 Leave Link  101 at Fri Sep 17 14:22:30 2021, MaxMem=   524288000 cpu:               0.1 elap:               0.1
 (Enter /opt/gaussian/g16_legacy/l103.exe)

 GradGradGradGradGradGradGradGradGradGradGradGradGradGradGradGradGradGrad
 Berny optimization.
 Initialization pass.
                           ----------------------------
                           !    Initial Parameters    !
                           ! (Angstroms and Degrees)  !
 --------------------------                            --------------------------
 ! Name  Definition              Value          Derivative Info.                !
 --------------------------------------------------------------------------------
 ! R1    R(1,2)                  1.0984         estimate D2E/DX2                !
 ! R2    R(1,3)                  1.0966         estimate D2E/DX2                !
 ! R3    R(1,4)                  1.5148         estimate D2E/DX2                !
 ! R4    R(1,26)                 1.532          estimate D2E/DX2                !
 ! R5    R(4,5)                  1.5072         estimate D2E/DX2                !
 ! R6    R(4,9)                  1.3478         estimate D2E/DX2                !
 ! R7    R(5,6)                  1.0949         estimate D2E/DX2                !
 ! R8    R(5,7)                  1.0945         estimate D2E/DX2                !
 ! R9    R(5,8)                  1.0952         estimate D2E/DX2                !
 ! R10   R(9,10)                 1.0897         estimate D2E/DX2                !
 ! R11   R(9,11)                 1.496          estimate D2E/DX2                !
 ! R12   R(11,12)                1.0948         estimate D2E/DX2                !
 ! R13   R(11,13)                1.0923         estimate D2E/DX2                !
 ! R14   R(11,14)                1.0941         estimate D2E/DX2                !
 ! R15   R(15,16)                1.0949         estimate D2E/DX2                !
 ! R16   R(15,17)                1.0951         estimate D2E/DX2                !
 ! R17   R(15,18)                1.0949         estimate D2E/DX2                !
 ! R18   R(15,19)                1.5065         estimate D2E/DX2                !
 ! R19   R(19,20)                1.5039         estimate D2E/DX2                !
 ! R20   R(19,24)                1.3474         estimate D2E/DX2                !
 ! R21   R(20,21)                1.0955         estimate D2E/DX2                !
 ! R22   R(20,22)                1.0923         estimate D2E/DX2                !
 ! R23   R(20,23)                1.0948         estimate D2E/DX2                !
 ! R24   R(24,25)                1.0901         estimate D2E/DX2                !
 ! R25   R(24,26)                1.5056         estimate D2E/DX2                !
 ! R26   R(26,27)                1.0949         estimate D2E/DX2                !
 ! R27   R(26,28)                1.0974         estimate D2E/DX2                !
 ! A1    A(2,1,3)              104.8458         estimate D2E/DX2                !
 ! A2    A(2,1,4)              109.014          estimate D2E/DX2                !
 ! A3    A(2,1,26)             110.0068         estimate D2E/DX2                !
 ! A4    A(3,1,4)              110.5894         estimate D2E/DX2                !
 ! A5    A(3,1,26)             109.9169         estimate D2E/DX2                !
 ! A6    A(4,1,26)             112.207          estimate D2E/DX2                !
 ! A7    A(1,4,5)              115.0701         estimate D2E/DX2                !
 ! A8    A(1,4,9)              124.3704         estimate D2E/DX2                !
 ! A9    A(5,4,9)              120.5491         estimate D2E/DX2                !
 ! A10   A(4,5,6)              110.2819         estimate D2E/DX2                !
 ! A11   A(4,5,7)              110.4719         estimate D2E/DX2                !
 ! A12   A(4,5,8)              112.2605         estimate D2E/DX2                !
 ! A13   A(6,5,7)              108.5665         estimate D2E/DX2                !
 ! A14   A(6,5,8)              107.5815         estimate D2E/DX2                !
 ! A15   A(7,5,8)              107.5434         estimate D2E/DX2                !
 ! A16   A(4,9,10)             118.583          estimate D2E/DX2                !
 ! A17   A(4,9,11)             127.493          estimate D2E/DX2                !
 ! A18   A(10,9,11)            113.916          estimate D2E/DX2                !
 ! A19   A(9,11,12)            109.4372         estimate D2E/DX2                !
 ! A20   A(9,11,13)            113.5156         estimate D2E/DX2                !
 ! A21   A(9,11,14)            109.8521         estimate D2E/DX2                !
 ! A22   A(12,11,13)           107.2903         estimate D2E/DX2                !
 ! A23   A(12,11,14)           108.1307         estimate D2E/DX2                !
 ! A24   A(13,11,14)           108.4533         estimate D2E/DX2                !
 ! A25   A(16,15,17)           107.6695         estimate D2E/DX2                !
 ! A26   A(16,15,18)           108.5655         estimate D2E/DX2                !
 ! A27   A(16,15,19)           110.2938         estimate D2E/DX2                !
 ! A28   A(17,15,18)           107.6433         estimate D2E/DX2                !
 ! A29   A(17,15,19)           112.3348         estimate D2E/DX2                !
 ! A30   A(18,15,19)           110.2072         estimate D2E/DX2                !
 ! A31   A(15,19,20)           114.2865         estimate D2E/DX2                !
 ! A32   A(15,19,24)           120.654          estimate D2E/DX2                !
 ! A33   A(20,19,24)           125.0566         estimate D2E/DX2                !
 ! A34   A(19,20,21)           110.0557         estimate D2E/DX2                !
 ! A35   A(19,20,22)           113.4321         estimate D2E/DX2                !
 ! A36   A(19,20,23)           110.0992         estimate D2E/DX2                !
 ! A37   A(21,20,22)           106.7848         estimate D2E/DX2                !
 ! A38   A(21,20,23)           108.3252         estimate D2E/DX2                !
 ! A39   A(22,20,23)           107.9662         estimate D2E/DX2                !
 ! A40   A(19,24,25)           118.4374         estimate D2E/DX2                !
 ! A41   A(19,24,26)           127.6047         estimate D2E/DX2                !
 ! A42   A(25,24,26)           113.9506         estimate D2E/DX2                !
 ! A43   A(1,26,24)            111.4106         estimate D2E/DX2                !
 ! A44   A(1,26,27)            110.3499         estimate D2E/DX2                !
 ! A45   A(1,26,28)            110.0615         estimate D2E/DX2                !
 ! A46   A(24,26,27)           111.5294         estimate D2E/DX2                !
 ! A47   A(24,26,28)           107.7479         estimate D2E/DX2                !
 ! A48   A(27,26,28)           105.5398         estimate D2E/DX2                !
 ! D1    D(2,1,4,5)             36.6432         estimate D2E/DX2                !
 ! D2    D(2,1,4,9)           -142.1832         estimate D2E/DX2                !
 ! D3    D(3,1,4,5)            151.4115         estimate D2E/DX2                !
 ! D4    D(3,1,4,9)            -27.4148         estimate D2E/DX2                !
 ! D5    D(26,1,4,5)           -85.4669         estimate D2E/DX2                !
 ! D6    D(26,1,4,9)            95.7068         estimate D2E/DX2                !
 ! D7    D(2,1,26,24)           58.0223         estimate D2E/DX2                !
 ! D8    D(2,1,26,27)         -177.516          estimate D2E/DX2                !
 ! D9    D(2,1,26,28)          -61.4346         estimate D2E/DX2                !
 ! D10   D(3,1,26,24)          -56.9352         estimate D2E/DX2                !
 ! D11   D(3,1,26,27)           67.5265         estimate D2E/DX2                !
 ! D12   D(3,1,26,28)         -176.3921         estimate D2E/DX2                !
 ! D13   D(4,1,26,24)          179.5656         estimate D2E/DX2                !
 ! D14   D(4,1,26,27)          -55.9727         estimate D2E/DX2                !
 ! D15   D(4,1,26,28)           60.1087         estimate D2E/DX2                !
 ! D16   D(1,4,5,6)            -59.4918         estimate D2E/DX2                !
 ! D17   D(1,4,5,7)             60.5279         estimate D2E/DX2                !
 ! D18   D(1,4,5,8)           -179.4408         estimate D2E/DX2                !
 ! D19   D(9,4,5,6)            119.3833         estimate D2E/DX2                !
 ! D20   D(9,4,5,7)           -120.5969         estimate D2E/DX2                !
 ! D21   D(9,4,5,8)             -0.5657         estimate D2E/DX2                !
 ! D22   D(1,4,9,10)           178.6014         estimate D2E/DX2                !
 ! D23   D(1,4,9,11)            -2.4871         estimate D2E/DX2                !
 ! D24   D(5,4,9,10)            -0.1641         estimate D2E/DX2                !
 ! D25   D(5,4,9,11)           178.7474         estimate D2E/DX2                !
 ! D26   D(4,9,11,12)         -127.745          estimate D2E/DX2                !
 ! D27   D(4,9,11,13)           -7.925          estimate D2E/DX2                !
 ! D28   D(4,9,11,14)          113.6838         estimate D2E/DX2                !
 ! D29   D(10,9,11,12)          51.2095         estimate D2E/DX2                !
 ! D30   D(10,9,11,13)         171.0294         estimate D2E/DX2                !
 ! D31   D(10,9,11,14)         -67.3618         estimate D2E/DX2                !
 ! D32   D(16,15,19,20)        -60.2523         estimate D2E/DX2                !
 ! D33   D(16,15,19,24)        119.161          estimate D2E/DX2                !
 ! D34   D(17,15,19,20)        179.6297         estimate D2E/DX2                !
 ! D35   D(17,15,19,24)         -0.9571         estimate D2E/DX2                !
 ! D36   D(18,15,19,20)         59.6044         estimate D2E/DX2                !
 ! D37   D(18,15,19,24)       -120.9824         estimate D2E/DX2                !
 ! D38   D(15,19,20,21)         52.7828         estimate D2E/DX2                !
 ! D39   D(15,19,20,22)        172.3388         estimate D2E/DX2                !
 ! D40   D(15,19,20,23)        -66.5581         estimate D2E/DX2                !
 ! D41   D(24,19,20,21)       -126.6006         estimate D2E/DX2                !
 ! D42   D(24,19,20,22)         -7.0445         estimate D2E/DX2                !
 ! D43   D(24,19,20,23)        114.0585         estimate D2E/DX2                !
 ! D44   D(15,19,24,25)         -0.5207         estimate D2E/DX2                !
 ! D45   D(15,19,24,26)        178.4322         estimate D2E/DX2                !
 ! D46   D(20,19,24,25)        178.8259         estimate D2E/DX2                !
 ! D47   D(20,19,24,26)         -2.2212         estimate D2E/DX2                !
 ! D48   D(19,24,26,1)         103.3662         estimate D2E/DX2                !
 ! D49   D(19,24,26,27)        -20.4296         estimate D2E/DX2                !
 ! D50   D(19,24,26,28)       -135.8121         estimate D2E/DX2                !
 ! D51   D(25,24,26,1)         -77.6413         estimate D2E/DX2                !
 ! D52   D(25,24,26,27)        158.5629         estimate D2E/DX2                !
 ! D53   D(25,24,26,28)         43.1804         estimate D2E/DX2                !
 --------------------------------------------------------------------------------
 Trust Radius=3.00D-01 FncErr=1.00D-07 GrdErr=1.00D-07 EigMax=2.50D+02 EigMin=1.00D-04
 Number of steps in this run=    138 maximum allowed number of steps=    168.
 GradGradGradGradGradGradGradGradGradGradGradGradGradGradGradGradGradGrad

 Leave Link  103 at Fri Sep 17 14:22:30 2021, MaxMem=   524288000 cpu:               0.0 elap:               0.1
 (Enter /opt/gaussian/g16_legacy/l202.exe)
                          Input orientation:                          
 ---------------------------------------------------------------------
 Center     Atomic      Atomic             Coordinates (Angstroms)
 Number     Number       Type             X           Y           Z
 ---------------------------------------------------------------------
      1          6           0       -0.783900   -0.756900    0.511000
      2          1           0       -0.666200   -1.661600    1.122600
      3          1           0       -0.627500   -1.093100   -0.521000
      4          6           0       -2.189100   -0.220100    0.689200
      5          6           0       -2.754000   -0.358300    2.079700
      6          1           0       -2.783600   -1.412400    2.374300
      7          1           0       -2.136400    0.187600    2.799800
      8          1           0       -3.773500    0.034800    2.154300
      9          6           0       -2.925900    0.326100   -0.298400
     10          1           0       -3.937100    0.661900   -0.069800
     11          6           0       -2.515100    0.561100   -1.717600
     12          1           0       -2.706500    1.605600   -1.984100
     13          1           0       -1.456100    0.367700   -1.902500
     14          1           0       -3.104900   -0.074200   -2.385200
     15          6           0        3.913500   -0.643900   -0.280300
     16          1           0        4.047100   -1.271100   -1.167800
     17          1           0        4.086700   -1.272100    0.599800
     18          1           0        4.680800    0.137200   -0.286700
     19          6           0        2.540300   -0.024400   -0.280200
     20          6           0        2.258600    0.855500   -1.466800
     21          1           0        2.466300    0.312200   -2.395100
     22          1           0        1.220300    1.190100   -1.522700
     23          1           0        2.898400    1.743400   -1.437100
     24          6           0        1.671300   -0.280200    0.717300
     25          1           0        1.982700   -0.951600    1.517600
     26          6           0        0.282700    0.275100    0.891000
     27          1           0        0.143400    1.196200    0.315600
     28          1           0        0.167700    0.565400    1.943000
 ---------------------------------------------------------------------
                    Distance matrix (angstroms):
                    1          2          3          4          5
     1  C    0.000000
     2  H    1.098358   0.000000
     3  H    1.096593   1.739572   0.000000
     4  C    1.514760   2.141257   2.159932   0.000000
     5  C    2.549705   2.640746   3.438833   1.507216   0.000000
     6  H    2.810759   2.472294   3.624015   2.148155   1.094894
     7  H    2.821337   2.897245   3.865836   2.150263   1.094523
     8  H    3.502132   3.687478   4.280970   2.172974   1.095205
     9  C    2.533018   3.328128   2.710410   1.347799   2.480587
    10  H    3.506136   4.185601   3.773203   2.099883   2.657232
    11  C    3.114616   4.052846   2.780515   2.551320   3.914314
    12  H    3.937426   4.948637   3.707544   3.278325   4.513716
    13  H    2.746190   3.727362   2.174639   2.756757   4.250828
    14  H    3.773738   4.557604   3.263573   3.211217   4.487669
    15  C    4.764923   4.896682   4.569507   6.193647   7.078610
    16  H    5.140168   5.254866   4.722491   6.591149   7.591734
    17  H    4.898577   4.797404   4.848909   6.363989   7.058350
    18  H    5.594523   5.814827   5.454043   6.948062   7.818032
    19  C    3.494690   3.863925   3.351874   4.831693   5.806051
    20  C    3.970936   4.647068   3.608483   5.058388   6.259164
    21  H    4.489119   5.107118   3.880556   5.609724   6.908324
    22  H    3.455946   4.323041   3.103348   4.301764   5.583000
    23  H    4.858593   5.554499   4.617027   5.853131   6.981021
    24  C    2.509544   2.745258   2.734717   3.860970   4.630930
    25  H    2.950462   2.770703   3.314975   4.315699   4.806692
    26  C    1.532012   2.169068   2.166605   2.528980   3.322010
    27  H    2.170868   3.077941   2.556380   2.754276   3.731413
    28  H    2.169019   2.515547   3.074778   2.782720   3.067285
                    6          7          8          9         10
     6  H    0.000000
     7  H    1.777616   0.000000
     8  H    1.767113   1.766385   0.000000
     9  C    3.191545   3.200209   2.611325   0.000000
    10  H    3.406891   3.420831   2.316601   1.089745   0.000000
    11  C    4.550872   4.548606   4.105140   1.496032   2.178873
    12  H    5.301879   5.022095   4.553269   2.127637   2.463634
    13  H    4.818924   4.754668   4.683886   2.176047   3.098500
    14  H    4.954478   5.281170   4.589768   2.132373   2.568166
    15  C    7.244905   6.839569   8.091840   6.907867   7.961240
    16  H    7.695772   7.490349   8.596715   7.206222   8.287915
    17  H    7.097151   6.760007   8.118325   7.248280   8.280706
    18  H    8.074618   7.483531   8.800236   7.609054   8.636582
    19  C    6.108750   5.603826   6.767153   5.477456   6.517054
    20  C    6.732102   6.161655   7.083230   5.340830   6.354195
    21  H    7.299512   6.941711   7.727166   5.785513   6.821498
    22  H    6.163670   5.563852   6.308176   4.408671   5.384114
    23  H    7.534651   6.761734   7.767349   6.101463   7.054304
    24  C    4.886068   4.365114   5.640039   4.746946   5.741187
    25  H    4.864554   4.461928   5.874709   5.387460   6.337764
    26  C    3.801320   3.082729   4.255165   3.422337   4.345050
    27  H    4.428360   3.519377   4.480153   3.248796   4.133339
    28  H    3.578810   2.487110   3.982366   3.827728   4.572752
                   11         12         13         14         15
    11  C    0.000000
    12  H    1.094823   0.000000
    13  H    1.092279   1.761407   0.000000
    14  H    1.094148   1.772380   1.773927   0.000000
    15  C    6.696623   7.196359   5.699778   7.349361   0.000000
    16  H    6.835328   7.385991   5.788839   7.352941   1.094936
    17  H    7.232892   7.816986   6.298657   7.878090   1.095084
    18  H    7.349023   7.720723   6.350235   8.066320   1.094946
    19  C    5.288289   5.752311   4.330914   6.025097   1.506472
    20  C    4.789341   5.048016   3.771840   5.520411   2.528770
    21  H    5.033419   5.347865   3.953600   5.584592   2.735122
    22  H    3.792999   3.975587   2.825545   4.587997   3.487182
    23  H    5.548198   5.633214   4.590296   6.343672   2.840390
    24  C    4.915533   5.478954   4.130830   5.699125   2.480916
    25  H    5.743256   6.386687   5.026229   6.471889   2.656146
    26  C    3.835919   4.355657   3.291754   4.725604   3.924183
    27  H    3.406593   3.684855   2.857408   4.411314   4.237301
    28  H    4.538439   4.976460   4.178957   5.463727   4.520673
                   16         17         18         19         20
    16  H    0.000000
    17  H    1.768044   0.000000
    18  H    1.777983   1.767757   0.000000
    19  C    2.147683   2.173133   2.146601   0.000000
    20  C    2.794738   3.484174   2.788484   1.503861   0.000000
    21  H    2.551868   3.755680   3.062676   2.142797   1.095470
    22  H    3.764872   4.334015   3.822480   2.182021   1.092314
    23  H    3.237166   3.828088   2.660874   2.142842   1.094803
    24  C    3.190597   2.613777   3.199895   1.347442   2.530816
    25  H    3.402235   2.317734   3.423555   2.098262   3.499768
    26  C    4.560713   4.116921   4.555137   2.560892   3.130538
    27  H    4.850455   4.660782   4.698111   2.754990   2.786951
    28  H    5.300901   4.532014   5.052028   3.304499   4.010331
                   21         22         23         24         25
    21  H    0.000000
    22  H    1.756219   0.000000
    23  H    1.775615   1.769036   0.000000
    24  C    3.266496   2.717128   3.200339   0.000000
    25  H    4.140082   3.796256   4.102656   1.090059   0.000000
    26  C    3.945623   2.746319   3.797083   1.505570   2.188017
    27  H    3.677664   2.130516   3.310802   2.162313   3.072600
    28  H    4.915972   3.675499   4.502164   2.116174   2.403431
                   26         27         28
    26  C    0.000000
    27  H    1.094950   0.000000
    28  H    1.097362   1.745546   0.000000
 Stoichiometry    C10H18
 Framework group  C1[X(C10H18)]
 Deg. of freedom    78
 Full point group                 C1      NOp   1
 Largest Abelian subgroup         C1      NOp   1
 Largest concise Abelian subgroup C1      NOp   1
                         Standard orientation:                         
 ---------------------------------------------------------------------
 Center     Atomic      Atomic             Coordinates (Angstroms)
 Number     Number       Type             X           Y           Z
 ---------------------------------------------------------------------
      1          6           0        0.793815   -0.586451    0.589181
      2          1           0        0.745989   -1.484296    1.220035
      3          1           0        0.484640    0.235333    1.246141
      4          6           0        2.220875   -0.386958    0.122064
      5          6           0        2.975663   -1.655014   -0.184581
      6          1           0        3.025207   -2.291706    0.704779
      7          1           0        2.478728   -2.212280   -0.984887
      8          1           0        4.003285   -1.458212   -0.508209
      9          6           0        2.820167    0.813924   -0.001605
     10          1           0        3.860392    0.846686   -0.324721
     11          6           0        2.215769    2.161868    0.234745
     12          1           0        2.388726    2.797148   -0.639978
     13          1           0        1.137439    2.132002    0.406166
     14          1           0        2.690845    2.635733    1.098988
     15          6           0       -3.965091   -0.407901    0.429720
     16          1           0       -4.237087    0.181292    1.311624
     17          1           0       -4.023745   -1.465977    0.705844
     18          1           0       -4.709085   -0.227476   -0.353112
     19          6           0       -2.593428   -0.018255   -0.056260
     20          6           0       -2.465988    1.425871   -0.456083
     21          1           0       -2.815399    2.072759    0.356015
     22          1           0       -1.439620    1.725920   -0.678993
     23          1           0       -3.076447    1.626098   -1.342560
     24          6           0       -1.596312   -0.923609   -0.097422
     25          1           0       -1.804016   -1.940121    0.236929
     26          6           0       -0.185938   -0.715604   -0.581486
     27          1           0       -0.111226    0.157062   -1.238592
     28          1           0        0.084177   -1.577189   -1.205114
 ---------------------------------------------------------------------
 Rotational constants (GHZ):           2.2181343           0.5802316           0.4854252
 Leave Link  202 at Fri Sep 17 14:22:30 2021, MaxMem=   524288000 cpu:               0.0 elap:               0.1
 (Enter /opt/gaussian/g16_legacy/l301.exe)
 Standard basis: 6-31G(d,p) (6D, 7F)
 Ernie: Thresh=  0.10000D-02 Tol=  0.10000D-05 Strict=F.
 There are   240 symmetry adapted cartesian basis functions of A   symmetry.
 There are   240 symmetry adapted basis functions of A   symmetry.
   240 basis functions,   406 primitive gaussians,   240 cartesian basis functions
    39 alpha electrons       39 beta electrons
       nuclear repulsion energy       516.4365297706 Hartrees.
 IExCor=    0 DFT=F Ex=HF Corr=None ExCW=0 ScaHFX=  1.000000
 ScaDFX=  1.000000  1.000000  1.000000  1.000000 ScalE2=  1.000000  1.000000
 IRadAn=      5 IRanWt=     -1 IRanGd=            0 ICorTp=0 IEmpDi=  4
 NAtoms=   28 NActive=   28 NUniq=   28 SFac= 1.00D+00 NAtFMM=   60 NAOKFM=F Big=F
 Integral buffers will be    131072 words long.
 Raffenetti 1 integral format.
 Two-electron integral symmetry is turned on.
 Leave Link  301 at Fri Sep 17 14:22:31 2021, MaxMem=   524288000 cpu:               0.1 elap:               0.1
 (Enter /opt/gaussian/g16_legacy/l302.exe)
 NPDir=0 NMtPBC=     1 NCelOv=     1 NCel=       1 NClECP=     1 NCelD=      1
         NCelK=      1 NCelE2=     1 NClLst=     1 CellRange=     0.0.
 One-electron integrals computed using PRISM.
 One-electron integral symmetry used in STVInt
 NBasis=   240 RedAO= T EigKep=  2.10D-03  NBF=   240
 NBsUse=   240 1.00D-06 EigRej= -1.00D+00 NBFU=   240
 Leave Link  302 at Fri Sep 17 14:22:31 2021, MaxMem=   524288000 cpu:               0.2 elap:               0.4
 (Enter /opt/gaussian/g16_legacy/l303.exe)
 DipDrv:  MaxL=1.
 Leave Link  303 at Fri Sep 17 14:22:31 2021, MaxMem=   524288000 cpu:               0.0 elap:               0.1
 (Enter /opt/gaussian/g16_legacy/l401.exe)
 ExpMin= 1.61D-01 ExpMax= 3.05D+03 ExpMxC= 4.57D+02 IAcc=3 IRadAn=         5 AccDes= 0.00D+00
 Harris functional with IExCor=  205 and IRadAn=       5 diagonalized for initial guess.
 HarFok:  IExCor=  205 AccDes= 0.00D+00 IRadAn=         5 IDoV= 1 UseB2=F ITyADJ=14
 ICtDFT=  3500011 ScaDFX=  1.000000  1.000000  1.000000  1.000000
 FoFCou: FMM=F IPFlag=           0 FMFlag=      100000 FMFlg1=           0
         NFxFlg=           0 DoJE=T BraDBF=F KetDBF=T FulRan=T
         wScrn=  0.000000 ICntrl=       500 IOpCl=  0 I1Cent=   200000004 NGrid=           0
         NMat0=    1 NMatS0=      1 NMatT0=    0 NMatD0=    1 NMtDS0=    0 NMtDT0=    0
 Petite list used in FoFCou.
 Harris En= -390.109897300482    
 JPrj=0 DoOrth=F DoCkMO=F.
 Leave Link  401 at Fri Sep 17 14:22:39 2021, MaxMem=   524288000 cpu:               7.2 elap:               7.4
 (Enter /opt/gaussian/g16_legacy/l502.exe)
 Keep R1 ints in memory in canonical form, NReq=425198025.
 FoFCou: FMM=F IPFlag=           0 FMFlag=           0 FMFlg1=           0
         NFxFlg=           0 DoJE=F BraDBF=F KetDBF=F FulRan=T
         wScrn=  0.000000 ICntrl=       600 IOpCl=  0 I1Cent=           0 NGrid=           0
         NMat0=    1 NMatS0=  28920 NMatT0=    0 NMatD0=    1 NMtDS0=    0 NMtDT0=    0
 Symmetry not used in FoFCou.
 Two-electron integral symmetry not used.
 Closed shell SCF:
 Using DIIS extrapolation, IDIIS=  1040.
 NGot=   524288000 LenX=   105970886 LenY=   105912845
 Requested convergence on RMS density matrix=1.00D-08 within 128 cycles.
 Requested convergence on MAX density matrix=1.00D-06.
 Requested convergence on             energy=1.00D-06.
 No special actions if energy rises.

 Cycle   1  Pass 1  IDiag  1:
 E= -388.533169527478    
 DIIS: error= 5.21D-02 at cycle   1 NSaved=   1.
 NSaved= 1 IEnMin= 1 EnMin= -388.533169527478     IErMin= 1 ErrMin= 5.21D-02
 ErrMax= 5.21D-02  0.00D+00 EMaxC= 1.00D-01 BMatC= 8.07D-01 BMatP= 8.07D-01
 IDIUse=3 WtCom= 4.79D-01 WtEn= 5.21D-01
 Coeff-Com:  0.100D+01
 Coeff-En:   0.100D+01
 Coeff:      0.100D+01
 Gap=     0.508 Goal=   None    Shift=    0.000
 GapD=    0.508 DampG=2.000 DampE=0.500 DampFc=1.0000 IDamp=-1.
 RMSDP=4.00D-03 MaxDP=1.14D-01              OVMax= 1.33D-01

 Cycle   2  Pass 1  IDiag  1:
 E= -389.073866578396     Delta-E=       -0.540697050919 Rises=F Damp=F
 DIIS: error= 1.59D-02 at cycle   2 NSaved=   2.
 NSaved= 2 IEnMin= 2 EnMin= -389.073866578396     IErMin= 2 ErrMin= 1.59D-02
 ErrMax= 1.59D-02  0.00D+00 EMaxC= 1.00D-01 BMatC= 8.66D-02 BMatP= 8.07D-01
 IDIUse=3 WtCom= 8.41D-01 WtEn= 1.59D-01
 Coeff-Com:  0.183D+00 0.817D+00
 Coeff-En:   0.000D+00 0.100D+01
 Coeff:      0.154D+00 0.846D+00
 Gap=     0.549 Goal=   None    Shift=    0.000
 RMSDP=1.63D-03 MaxDP=3.04D-02 DE=-5.41D-01 OVMax= 4.61D-02

 Cycle   3  Pass 1  IDiag  1:
 E= -389.151431669152     Delta-E=       -0.077565090755 Rises=F Damp=F
 DIIS: error= 3.43D-03 at cycle   3 NSaved=   3.
 NSaved= 3 IEnMin= 3 EnMin= -389.151431669152     IErMin= 3 ErrMin= 3.43D-03
 ErrMax= 3.43D-03  0.00D+00 EMaxC= 1.00D-01 BMatC= 3.14D-03 BMatP= 8.66D-02
 IDIUse=3 WtCom= 9.66D-01 WtEn= 3.43D-02
 Coeff-Com: -0.245D-01 0.106D+00 0.919D+00
 Coeff-En:   0.000D+00 0.000D+00 0.100D+01
 Coeff:     -0.236D-01 0.102D+00 0.921D+00
 Gap=     0.499 Goal=   None    Shift=    0.000
 RMSDP=2.59D-04 MaxDP=7.14D-03 DE=-7.76D-02 OVMax= 1.01D-02

 Cycle   4  Pass 1  IDiag  1:
 E= -389.155057567625     Delta-E=       -0.003625898473 Rises=F Damp=F
 DIIS: error= 5.31D-04 at cycle   4 NSaved=   4.
 NSaved= 4 IEnMin= 4 EnMin= -389.155057567625     IErMin= 4 ErrMin= 5.31D-04
 ErrMax= 5.31D-04  0.00D+00 EMaxC= 1.00D-01 BMatC= 9.29D-05 BMatP= 3.14D-03
 IDIUse=3 WtCom= 9.95D-01 WtEn= 5.31D-03
 Coeff-Com: -0.424D-02-0.189D-02 0.950D-01 0.911D+00
 Coeff-En:   0.000D+00 0.000D+00 0.000D+00 0.100D+01
 Coeff:     -0.422D-02-0.188D-02 0.945D-01 0.912D+00
 Gap=     0.499 Goal=   None    Shift=    0.000
 RMSDP=7.39D-05 MaxDP=1.49D-03 DE=-3.63D-03 OVMax= 3.14D-03

 Cycle   5  Pass 1  IDiag  1:
 E= -389.155181924569     Delta-E=       -0.000124356944 Rises=F Damp=F
 DIIS: error= 1.63D-04 at cycle   5 NSaved=   5.
 NSaved= 5 IEnMin= 5 EnMin= -389.155181924569     IErMin= 5 ErrMin= 1.63D-04
 ErrMax= 1.63D-04  0.00D+00 EMaxC= 1.00D-01 BMatC= 1.60D-05 BMatP= 9.29D-05
 IDIUse=3 WtCom= 9.98D-01 WtEn= 1.63D-03
 Coeff-Com:  0.241D-02-0.152D-01-0.102D+00 0.176D+00 0.939D+00
 Coeff-En:   0.000D+00 0.000D+00 0.000D+00 0.000D+00 0.100D+01
 Coeff:      0.241D-02-0.152D-01-0.102D+00 0.175D+00 0.939D+00
 Gap=     0.500 Goal=   None    Shift=    0.000
 RMSDP=3.00D-05 MaxDP=6.56D-04 DE=-1.24D-04 OVMax= 9.23D-04

 Cycle   6  Pass 1  IDiag  1:
 E= -389.155203412802     Delta-E=       -0.000021488233 Rises=F Damp=F
 DIIS: error= 3.58D-05 at cycle   6 NSaved=   6.
 NSaved= 6 IEnMin= 6 EnMin= -389.155203412802     IErMin= 6 ErrMin= 3.58D-05
 ErrMax= 3.58D-05  0.00D+00 EMaxC= 1.00D-01 BMatC= 5.50D-07 BMatP= 1.60D-05
 IDIUse=1 WtCom= 1.00D+00 WtEn= 0.00D+00
 Coeff-Com:  0.720D-03-0.335D-02-0.261D-01-0.433D-02 0.177D+00 0.856D+00
 Coeff:      0.720D-03-0.335D-02-0.261D-01-0.433D-02 0.177D+00 0.856D+00
 Gap=     0.500 Goal=   None    Shift=    0.000
 RMSDP=5.30D-06 MaxDP=1.61D-04 DE=-2.15D-05 OVMax= 3.23D-04

 Cycle   7  Pass 1  IDiag  1:
 E= -389.155204254060     Delta-E=       -0.000000841258 Rises=F Damp=F
 DIIS: error= 1.03D-05 at cycle   7 NSaved=   7.
 NSaved= 7 IEnMin= 7 EnMin= -389.155204254060     IErMin= 7 ErrMin= 1.03D-05
 ErrMax= 1.03D-05  0.00D+00 EMaxC= 1.00D-01 BMatC= 5.44D-08 BMatP= 5.50D-07
 IDIUse=1 WtCom= 1.00D+00 WtEn= 0.00D+00
 Coeff-Com: -0.494D-04 0.464D-03 0.301D-02-0.105D-01-0.468D-01 0.145D+00
 Coeff-Com:  0.909D+00
 Coeff:     -0.494D-04 0.464D-03 0.301D-02-0.105D-01-0.468D-01 0.145D+00
 Coeff:      0.909D+00
 Gap=     0.500 Goal=   None    Shift=    0.000
 RMSDP=1.71D-06 MaxDP=4.10D-05 DE=-8.41D-07 OVMax= 8.42D-05

 Cycle   8  Pass 1  IDiag  1:
 E= -389.155204343032     Delta-E=       -0.000000088972 Rises=F Damp=F
 DIIS: error= 3.51D-06 at cycle   8 NSaved=   8.
 NSaved= 8 IEnMin= 8 EnMin= -389.155204343032     IErMin= 8 ErrMin= 3.51D-06
 ErrMax= 3.51D-06  0.00D+00 EMaxC= 1.00D-01 BMatC= 5.10D-09 BMatP= 5.44D-08
 IDIUse=1 WtCom= 1.00D+00 WtEn= 0.00D+00
 Coeff-Com: -0.581D-04 0.249D-03 0.208D-02 0.315D-02-0.171D-01-0.804D-01
 Coeff-Com: -0.123D+00 0.121D+01
 Coeff:     -0.581D-04 0.249D-03 0.208D-02 0.315D-02-0.171D-01-0.804D-01
 Coeff:     -0.123D+00 0.121D+01
 Gap=     0.500 Goal=   None    Shift=    0.000
 RMSDP=7.85D-07 MaxDP=2.41D-05 DE=-8.90D-08 OVMax= 5.81D-05

 Cycle   9  Pass 1  IDiag  1:
 E= -389.155204358915     Delta-E=       -0.000000015883 Rises=F Damp=F
 DIIS: error= 1.46D-06 at cycle   9 NSaved=   9.
 NSaved= 9 IEnMin= 9 EnMin= -389.155204358915     IErMin= 9 ErrMin= 1.46D-06
 ErrMax= 1.46D-06  0.00D+00 EMaxC= 1.00D-01 BMatC= 7.39D-10 BMatP= 5.10D-09
 IDIUse=1 WtCom= 1.00D+00 WtEn= 0.00D+00
 Coeff-Com:  0.929D-05-0.690D-04-0.480D-03 0.144D-02 0.386D-02 0.987D-04
 Coeff-Com: -0.865D-01-0.120D+00 0.120D+01
 Coeff:      0.929D-05-0.690D-04-0.480D-03 0.144D-02 0.386D-02 0.987D-04
 Coeff:     -0.865D-01-0.120D+00 0.120D+01
 Gap=     0.500 Goal=   None    Shift=    0.000
 RMSDP=2.99D-07 MaxDP=1.24D-05 DE=-1.59D-08 OVMax= 2.71D-05

 Cycle  10  Pass 1  IDiag  1:
 E= -389.155204361337     Delta-E=       -0.000000002422 Rises=F Damp=F
 DIIS: error= 3.97D-07 at cycle  10 NSaved=  10.
 NSaved=10 IEnMin=10 EnMin= -389.155204361337     IErMin=10 ErrMin= 3.97D-07
 ErrMax= 3.97D-07  0.00D+00 EMaxC= 1.00D-01 BMatC= 1.21D-10 BMatP= 7.39D-10
 IDIUse=1 WtCom= 1.00D+00 WtEn= 0.00D+00
 Coeff-Com:  0.952D-05-0.464D-04-0.369D-03-0.135D-03 0.233D-02 0.142D-01
 Coeff-Com:  0.596D-02-0.211D+00 0.143D+00 0.105D+01
 Coeff:      0.952D-05-0.464D-04-0.369D-03-0.135D-03 0.233D-02 0.142D-01
 Coeff:      0.596D-02-0.211D+00 0.143D+00 0.105D+01
 Gap=     0.500 Goal=   None    Shift=    0.000
 RMSDP=1.24D-07 MaxDP=3.07D-06 DE=-2.42D-09 OVMax= 9.88D-06

 Cycle  11  Pass 1  IDiag  1:
 E= -389.155204361653     Delta-E=       -0.000000000315 Rises=F Damp=F
 DIIS: error= 1.55D-07 at cycle  11 NSaved=  11.
 NSaved=11 IEnMin=11 EnMin= -389.155204361653     IErMin=11 ErrMin= 1.55D-07
 ErrMax= 1.55D-07  0.00D+00 EMaxC= 1.00D-01 BMatC= 9.54D-12 BMatP= 1.21D-10
 IDIUse=1 WtCom= 1.00D+00 WtEn= 0.00D+00
 Coeff-Com:  0.394D-06 0.838D-06 0.101D-05-0.149D-03-0.305D-03 0.278D-02
 Coeff-Com:  0.110D-01-0.153D-01-0.107D+00 0.164D+00 0.945D+00
 Coeff:      0.394D-06 0.838D-06 0.101D-05-0.149D-03-0.305D-03 0.278D-02
 Coeff:      0.110D-01-0.153D-01-0.107D+00 0.164D+00 0.945D+00
 Gap=     0.500 Goal=   None    Shift=    0.000
 RMSDP=2.76D-08 MaxDP=1.16D-06 DE=-3.15D-10 OVMax= 2.51D-06

 Cycle  12  Pass 1  IDiag  1:
 E= -389.155204361681     Delta-E=       -0.000000000029 Rises=F Damp=F
 DIIS: error= 3.64D-08 at cycle  12 NSaved=  12.
 NSaved=12 IEnMin=12 EnMin= -389.155204361681     IErMin=12 ErrMin= 3.64D-08
 ErrMax= 3.64D-08  0.00D+00 EMaxC= 1.00D-01 BMatC= 1.17D-12 BMatP= 9.54D-12
 IDIUse=1 WtCom= 1.00D+00 WtEn= 0.00D+00
 Coeff-Com: -0.102D-05 0.547D-05 0.429D-04 0.323D-05-0.343D-03-0.126D-02
 Coeff-Com:  0.366D-03 0.217D-01-0.321D-01-0.113D+00 0.983D-01 0.103D+01
 Coeff:     -0.102D-05 0.547D-05 0.429D-04 0.323D-05-0.343D-03-0.126D-02
 Coeff:      0.366D-03 0.217D-01-0.321D-01-0.113D+00 0.983D-01 0.103D+01
 Gap=     0.500 Goal=   None    Shift=    0.000
 RMSDP=1.18D-08 MaxDP=3.33D-07 DE=-2.88D-11 OVMax= 8.46D-07

 Cycle  13  Pass 1  IDiag  1:
 E= -389.155204361658     Delta-E=        0.000000000023 Rises=F Damp=F
 DIIS: error= 1.06D-08 at cycle  13 NSaved=  13.
 NSaved=13 IEnMin=12 EnMin= -389.155204361681     IErMin=13 ErrMin= 1.06D-08
 ErrMax= 1.06D-08  0.00D+00 EMaxC= 1.00D-01 BMatC= 5.48D-14 BMatP= 1.17D-12
 IDIUse=1 WtCom= 1.00D+00 WtEn= 0.00D+00
 Coeff-Com: -0.122D-06 0.462D-06 0.389D-05 0.136D-04-0.170D-04-0.298D-03
 Coeff-Com: -0.849D-03 0.352D-02 0.515D-02-0.213D-01-0.612D-01 0.111D+00
 Coeff-Com:  0.964D+00
 Coeff:     -0.122D-06 0.462D-06 0.389D-05 0.136D-04-0.170D-04-0.298D-03
 Coeff:     -0.849D-03 0.352D-02 0.515D-02-0.213D-01-0.612D-01 0.111D+00
 Coeff:      0.964D+00
 Gap=     0.500 Goal=   None    Shift=    0.000
 RMSDP=2.13D-09 MaxDP=7.03D-08 DE= 2.32D-11 OVMax= 1.05D-07

 SCF Done:  E(RHF) =  -389.155204362     A.U. after   13 cycles
            NFock= 13  Conv=0.21D-08     -V/T= 2.0014
 KE= 3.886259104524D+02 PE=-1.937506796016D+03 EE= 6.432891514318D+02
 Leave Link  502 at Fri Sep 17 14:23:03 2021, MaxMem=   524288000 cpu:              24.2 elap:              24.3
 (Enter /opt/gaussian/g16_legacy/l801.exe)
 ExpMin= 1.61D-01 ExpMax= 3.05D+03 ExpMxC= 4.57D+02 IAcc=3 IRadAn=         5 AccDes= 0.00D+00
 HarFok:  IExCor=  205 AccDes= 0.00D+00 IRadAn=         5 IDoV=-2 UseB2=F ITyADJ=14
 ICtDFT= 12500011 ScaDFX=  1.000000  1.000000  1.000000  1.000000
 Largest valence mixing into a core orbital is  1.98D-04
 Largest core mixing into a valence orbital is  3.52D-05
 Range of M.O.s used for correlation:    11   240
 NBasis=   240 NAE=    39 NBE=    39 NFC=    10 NFV=     0
 NROrb=    230 NOA=    29 NOB=    29 NVA=   201 NVB=   201
 Leave Link  801 at Fri Sep 17 14:23:04 2021, MaxMem=   524288000 cpu:               0.9 elap:               0.9
 (Enter /opt/gaussian/g16_legacy/l906.exe)
 Frozen-core derivative calculation, NFC=  10 NFV=   0.
 FulOut=F Deriv=T AODrv=T NAtomX=    28
   MMem=          88  MDisk=          29 MDiskD=          29
  W3Min=     2246400 MinDsk=     2795480 NBas6D=         240
 NBas2D=       29244    NTT=       28920    LW2=     2040000
    MDV=   523626386 MDiskM=       30186 NBas2p=       24383
 Fully direct method using O(ONN) memory.
 IMap=   1   2   3   4   5   6   7   8   9  10  11  12  13  14  15  16  17  18  19  20
 IMap=  21  22  23  24  25  26  27  28  29  30  31  32  33  34  35  36  37  38  39
 JobTyp=1 Pass  1:  I=  11 to  39 NPSUse=  1 ParTrn=F ParDer=F DoDerP=T.
 Spin components of T(2) and E(2):
     alpha-alpha T2 =       0.5715197610D-01 E2=     -0.1638036249D+00
     alpha-beta  T2 =       0.3618174946D+00 E2=     -0.1089339617D+01
     beta-beta   T2 =       0.5715197610D-01 E2=     -0.1638036249D+00
 The integrals were generated   1 times.
 ANorm=    0.1214957385D+01
 E2 =    -0.1416946867D+01 EUMP2 =    -0.39057215122839D+03
 Leave Link  906 at Fri Sep 17 14:25:37 2021, MaxMem=   524288000 cpu:             153.3 elap:             153.4
 (Enter /opt/gaussian/g16_legacy/l1002.exe)
 Minotr:  Closed shell wavefunction.
          Computing MP2/KS-MP2 derivatives.
          Using Z-Vector for PSCF gradient.
          Skipping F1 and S1 gradient terms here.
          IDoAtm=1111111111111111111111111111
          Frozen-core window.
          Direct CPHF calculation.
          Differentiating once with respect to electric field.
                with respect to dipole field.
          Differentiating once with respect to nuclear coordinates.
          Requested convergence is 1.0D-10 RMS, and 1.0D-09 maximum.
          NewPWx=F KeepS1=T KeepF1=T KeepIn=T MapXYZ=F SortEE=F KeepMc=T.
 Keep R1 ints in memory in canonical form, NReq=425201067.
 FoFCou: FMM=F IPFlag=           0 FMFlag=           0 FMFlg1=           0
         NFxFlg=           0 DoJE=F BraDBF=F KetDBF=F FulRan=T
         wScrn=  0.000000 ICntrl=       600 IOpCl=  0 I1Cent=           0 NGrid=           0
         NMat0=    1 NMatS0=  28920 NMatT0=    0 NMatD0=    1 NMtDS0=    0 NMtDT0=    0
 Symmetry not used in FoFCou.
 Two-electron integral symmetry not used.
          MDV=     524288000 using IRadAn=       5.
          Solving linear equations separately, MaxMat=       0.
          There are     1 degrees of freedom in the 1st order CPHF.  IDoFFX=0 NUNeed=     1.
 LinEq1:  Iter=  0 NonCon=     1 RMS=2.55D-03 Max=3.76D-02 NDo=     1
 AX will form     1 AO Fock derivatives at one time.
 LinEq1:  Iter=  1 NonCon=     1 RMS=6.90D-04 Max=9.74D-03 NDo=     1
 LinEq1:  Iter=  2 NonCon=     1 RMS=1.61D-04 Max=4.14D-03 NDo=     1
 LinEq1:  Iter=  3 NonCon=     1 RMS=4.31D-05 Max=5.08D-04 NDo=     1
 LinEq1:  Iter=  4 NonCon=     1 RMS=1.99D-05 Max=8.55D-04 NDo=     1
 LinEq1:  Iter=  5 NonCon=     1 RMS=5.06D-06 Max=8.26D-05 NDo=     1
 LinEq1:  Iter=  6 NonCon=     1 RMS=1.63D-06 Max=2.68D-05 NDo=     1
 LinEq1:  Iter=  7 NonCon=     1 RMS=4.13D-07 Max=4.19D-06 NDo=     1
 LinEq1:  Iter=  8 NonCon=     1 RMS=1.01D-07 Max=1.86D-06 NDo=     1
 LinEq1:  Iter=  9 NonCon=     1 RMS=2.33D-08 Max=6.32D-07 NDo=     1
 LinEq1:  Iter= 10 NonCon=     1 RMS=6.42D-09 Max=1.62D-07 NDo=     1
 LinEq1:  Iter= 11 NonCon=     1 RMS=1.89D-09 Max=3.63D-08 NDo=     1
 LinEq1:  Iter= 12 NonCon=     1 RMS=4.14D-10 Max=7.60D-09 NDo=     1
 LinEq1:  Iter= 13 NonCon=     1 RMS=1.06D-10 Max=9.19D-10 NDo=     1
 LinEq1:  Iter= 14 NonCon=     1 RMS=4.27D-11 Max=1.55D-09 NDo=     1
 LinEq1:  Iter= 15 NonCon=     0 RMS=1.31D-11 Max=1.82D-10 NDo=     1
 Linear equations converged to 1.000D-10 1.000D-09 after    15 iterations.
 End of Minotr F.D. properties file   721 does not exist.
 End of Minotr F.D. properties file   722 does not exist.
 End of Minotr F.D. properties file   788 does not exist.
 Leave Link 1002 at Fri Sep 17 14:25:58 2021, MaxMem=   524288000 cpu:              20.3 elap:              20.3
 (Enter /opt/gaussian/g16_legacy/l601.exe)
 Copying SCF densities to generalized density rwf, IOpCl= 0 IROHF=0.

 **********************************************************************

            Population analysis using the SCF density.

 **********************************************************************

 Orbital symmetries:
       Occupied  (A) (A) (A) (A) (A) (A) (A) (A) (A) (A) (A) (A)
                 (A) (A) (A) (A) (A) (A) (A) (A) (A) (A) (A) (A)
                 (A) (A) (A) (A) (A) (A) (A) (A) (A) (A) (A) (A)
                 (A) (A) (A)
       Virtual   (A) (A) (A) (A) (A) (A) (A) (A) (A) (A) (A) (A)
                 (A) (A) (A) (A) (A) (A) (A) (A) (A) (A) (A) (A)
                 (A) (A) (A) (A) (A) (A) (A) (A) (A) (A) (A) (A)
                 (A) (A) (A) (A) (A) (A) (A) (A) (A) (A) (A) (A)
                 (A) (A) (A) (A) (A) (A) (A) (A) (A) (A) (A) (A)
                 (A) (A) (A) (A) (A) (A) (A) (A) (A) (A) (A) (A)
                 (A) (A) (A) (A) (A) (A) (A) (A) (A) (A) (A) (A)
                 (A) (A) (A) (A) (A) (A) (A) (A) (A) (A) (A) (A)
                 (A) (A) (A) (A) (A) (A) (A) (A) (A) (A) (A) (A)
                 (A) (A) (A) (A) (A) (A) (A) (A) (A) (A) (A) (A)
                 (A) (A) (A) (A) (A) (A) (A) (A) (A) (A) (A) (A)
                 (A) (A) (A) (A) (A) (A) (A) (A) (A) (A) (A) (A)
                 (A) (A) (A) (A) (A) (A) (A) (A) (A) (A) (A) (A)
                 (A) (A) (A) (A) (A) (A) (A) (A) (A) (A) (A) (A)
                 (A) (A) (A) (A) (A) (A) (A) (A) (A) (A) (A) (A)
                 (A) (A) (A) (A) (A) (A) (A) (A) (A) (A) (A) (A)
                 (A) (A) (A) (A) (A) (A) (A) (A) (A)
 The electronic state is 1-A.
 Alpha  occ. eigenvalues --  -11.23060 -11.22505 -11.22000 -11.21921 -11.21884
 Alpha  occ. eigenvalues --  -11.21650 -11.21554 -11.21485 -11.21457 -11.21438
 Alpha  occ. eigenvalues --   -1.10624  -1.08327  -1.01911  -0.98013  -0.93646
 Alpha  occ. eigenvalues --   -0.91776  -0.86754  -0.82685  -0.70599  -0.69342
 Alpha  occ. eigenvalues --   -0.64585  -0.61545  -0.60102  -0.59030  -0.58088
 Alpha  occ. eigenvalues --   -0.56803  -0.55368  -0.55150  -0.53547  -0.51981
 Alpha  occ. eigenvalues --   -0.51715  -0.51320  -0.50592  -0.49229  -0.48276
 Alpha  occ. eigenvalues --   -0.46015  -0.44274  -0.33355  -0.31524
 Alpha virt. eigenvalues --    0.18455   0.19493   0.22038   0.24453   0.25183
 Alpha virt. eigenvalues --    0.27140   0.28395   0.28931   0.30250   0.30504
 Alpha virt. eigenvalues --    0.31237   0.32117   0.33136   0.33436   0.34031
 Alpha virt. eigenvalues --    0.35676   0.35773   0.36970   0.38998   0.40649
 Alpha virt. eigenvalues --    0.41064   0.42594   0.43321   0.44192   0.45150
 Alpha virt. eigenvalues --    0.51684   0.54047   0.61170   0.62446   0.70139
 Alpha virt. eigenvalues --    0.71101   0.71888   0.74280   0.76417   0.76616
 Alpha virt. eigenvalues --    0.76877   0.78796   0.79455   0.81139   0.82036
 Alpha virt. eigenvalues --    0.83812   0.85656   0.88080   0.91266   0.92026
 Alpha virt. eigenvalues --    0.92896   0.95178   0.97058   0.98262   0.99207
 Alpha virt. eigenvalues --    0.99751   1.00204   1.02302   1.03926   1.06183
 Alpha virt. eigenvalues --    1.07863   1.08639   1.08809   1.11199   1.12389
 Alpha virt. eigenvalues --    1.12559   1.13431   1.14582   1.14925   1.15818
 Alpha virt. eigenvalues --    1.16162   1.16402   1.18224   1.18705   1.20091
 Alpha virt. eigenvalues --    1.20661   1.22066   1.22852   1.25018   1.27540
 Alpha virt. eigenvalues --    1.34169   1.40671   1.41851   1.43739   1.45171
 Alpha virt. eigenvalues --    1.47559   1.53476   1.56255   1.56978   1.58248
 Alpha virt. eigenvalues --    1.59849   1.62719   1.65799   1.69520   1.70791
 Alpha virt. eigenvalues --    1.75332   1.82525   1.92036   1.92196   1.95500
 Alpha virt. eigenvalues --    1.98630   2.01126   2.02848   2.04184   2.08703
 Alpha virt. eigenvalues --    2.09247   2.11124   2.11379   2.13103   2.14503
 Alpha virt. eigenvalues --    2.15427   2.17688   2.19722   2.23578   2.27382
 Alpha virt. eigenvalues --    2.28338   2.29996   2.32202   2.34975   2.35568
 Alpha virt. eigenvalues --    2.35646   2.35783   2.39324   2.39850   2.40351
 Alpha virt. eigenvalues --    2.41283   2.41827   2.43036   2.45161   2.45388
 Alpha virt. eigenvalues --    2.47031   2.48340   2.49337   2.50338   2.54523
 Alpha virt. eigenvalues --    2.56587   2.57720   2.61273   2.62185   2.64352
 Alpha virt. eigenvalues --    2.66340   2.67159   2.72033   2.72993   2.73745
 Alpha virt. eigenvalues --    2.75719   2.77697   2.81090   2.82804   2.85156
 Alpha virt. eigenvalues --    2.87730   2.89152   2.91917   2.93439   2.94437
 Alpha virt. eigenvalues --    2.97092   2.99037   3.01163   3.02602   3.05099
 Alpha virt. eigenvalues --    3.05824   3.06633   3.08508   3.13015   3.15940
 Alpha virt. eigenvalues --    3.17136   3.18163   3.19612   3.20676   3.21265
 Alpha virt. eigenvalues --    3.23190   3.24413   3.26461   3.27244   3.36666
 Alpha virt. eigenvalues --    3.39075   3.44607   3.45616   3.55549   3.57289
 Alpha virt. eigenvalues --    3.58695   3.61052   3.66890   3.73953   3.78198
 Alpha virt. eigenvalues --    3.78867   3.80511   3.81325   3.82332   3.82837
 Alpha virt. eigenvalues --    3.84207   3.85747   3.87657   3.89507   3.91178
 Alpha virt. eigenvalues --    3.95896   4.59095   4.62635   4.74429   4.82815
 Alpha virt. eigenvalues --    4.88837   4.92667   4.93352   5.07551   5.10289
 Alpha virt. eigenvalues --    5.16869
          Condensed to atoms (all electrons):
               1          2          3          4          5          6
     1  C    5.001832   0.413510   0.412354   0.340279  -0.058745  -0.003552
     2  H    0.413510   0.588514  -0.030229  -0.045062  -0.004693   0.002571
     3  H    0.412354  -0.030229   0.571671  -0.040532   0.003238  -0.000016
     4  C    0.340279  -0.045062  -0.040532   4.955067   0.349336  -0.043070
     5  C   -0.058745  -0.004693   0.003238   0.349336   4.896459   0.397379
     6  H   -0.003552   0.002571  -0.000016  -0.043070   0.397379   0.593626
     7  H   -0.000530  -0.000276  -0.000030  -0.045809   0.400282  -0.035022
     8  H    0.003675   0.000081  -0.000103  -0.041403   0.406171  -0.027601
     9  C   -0.044052   0.001919  -0.002233   0.698840  -0.045928  -0.000426
    10  H    0.003079  -0.000114   0.000060  -0.036529  -0.006483   0.000248
    11  C   -0.007062   0.000138  -0.002135  -0.050686   0.003424  -0.000114
    12  H    0.000232  -0.000010  -0.000034   0.000593  -0.000100  -0.000004
    13  H   -0.001828   0.000004  -0.001333  -0.000418   0.000092  -0.000001
    14  H    0.000227   0.000028   0.000172  -0.001412  -0.000116   0.000021
    15  C   -0.000101  -0.000000  -0.000042   0.000002  -0.000000  -0.000000
    16  H    0.000022  -0.000001  -0.000005  -0.000000   0.000000  -0.000000
    17  H   -0.000003   0.000002  -0.000002   0.000000  -0.000000  -0.000000
    18  H   -0.000004   0.000000   0.000001   0.000000  -0.000000   0.000000
    19  C   -0.003607   0.000615   0.001046   0.000006  -0.000002   0.000000
    20  C    0.000597  -0.000016   0.000160  -0.000017  -0.000000  -0.000000
    21  H    0.000077  -0.000001  -0.000076  -0.000002   0.000000  -0.000000
    22  H   -0.000053  -0.000012  -0.000052  -0.000027  -0.000000  -0.000000
    23  H   -0.000041   0.000000   0.000014   0.000001  -0.000000   0.000000
    24  C   -0.063062  -0.000608  -0.000806   0.006130  -0.000158   0.000001
    25  H    0.000004   0.001003   0.000213  -0.000155   0.000010  -0.000002
    26  C    0.326230  -0.044607  -0.039847  -0.057367  -0.000187   0.000027
    27  H   -0.040299   0.004203  -0.002144  -0.001437   0.000317   0.000012
    28  H   -0.045129  -0.002603   0.004289  -0.001850  -0.000392   0.000093
               7          8          9         10         11         12
     1  C   -0.000530   0.003675  -0.044052   0.003079  -0.007062   0.000232
     2  H   -0.000276   0.000081   0.001919  -0.000114   0.000138  -0.000010
     3  H   -0.000030  -0.000103  -0.002233   0.000060  -0.002135  -0.000034
     4  C   -0.045809  -0.041403   0.698840  -0.036529  -0.050686   0.000593
     5  C    0.400282   0.406171  -0.045928  -0.006483   0.003424  -0.000100
     6  H   -0.035022  -0.027601  -0.000426   0.000248  -0.000114  -0.000004
     7  H    0.594778  -0.028080  -0.001034   0.000123  -0.000100   0.000015
     8  H   -0.028080   0.571032  -0.002736   0.002222   0.000137  -0.000009
     9  C   -0.001034  -0.002736   4.939974   0.404866   0.337717  -0.042843
    10  H    0.000123   0.002222   0.404866   0.559376  -0.043641  -0.002648
    11  C   -0.000100   0.000137   0.337717  -0.043641   4.906226   0.403009
    12  H    0.000015  -0.000009  -0.042843  -0.002648   0.403009   0.586795
    13  H    0.000000   0.000004  -0.041944   0.003316   0.408016  -0.030023
    14  H   -0.000005  -0.000004  -0.044357  -0.000222   0.400032  -0.033271
    15  C   -0.000000   0.000000  -0.000000   0.000000  -0.000000  -0.000000
    16  H    0.000000  -0.000000  -0.000000  -0.000000   0.000000   0.000000
    17  H   -0.000000   0.000000  -0.000000   0.000000   0.000000  -0.000000
    18  H    0.000000   0.000000   0.000000   0.000000  -0.000000  -0.000000
    19  C    0.000000   0.000000   0.000001   0.000000   0.000007   0.000000
    20  C   -0.000000  -0.000000   0.000010  -0.000000  -0.000097  -0.000004
    21  H    0.000000  -0.000000   0.000000  -0.000000  -0.000003   0.000000
    22  H    0.000000   0.000000  -0.000032   0.000000   0.000040   0.000042
    23  H    0.000000   0.000000   0.000000   0.000000   0.000002  -0.000000
    24  C   -0.000086   0.000003   0.000070   0.000002  -0.000032  -0.000004
    25  H    0.000012  -0.000000  -0.000002  -0.000000   0.000000   0.000000
    26  C    0.000810  -0.000097  -0.004368  -0.000116   0.000690   0.000091
    27  H   -0.000009  -0.000010   0.001216  -0.000044   0.000070  -0.000079
    28  H   -0.000187  -0.000025   0.000514   0.000004  -0.000030   0.000000
              13         14         15         16         17         18
     1  C   -0.001828   0.000227  -0.000101   0.000022  -0.000003  -0.000004
     2  H    0.000004   0.000028  -0.000000  -0.000001   0.000002   0.000000
     3  H   -0.001333   0.000172  -0.000042  -0.000005  -0.000002   0.000001
     4  C   -0.000418  -0.001412   0.000002  -0.000000   0.000000   0.000000
     5  C    0.000092  -0.000116  -0.000000   0.000000  -0.000000  -0.000000
     6  H   -0.000001   0.000021  -0.000000  -0.000000  -0.000000   0.000000
     7  H    0.000000  -0.000005  -0.000000   0.000000  -0.000000   0.000000
     8  H    0.000004  -0.000004   0.000000  -0.000000   0.000000   0.000000
     9  C   -0.041944  -0.044357  -0.000000  -0.000000  -0.000000   0.000000
    10  H    0.003316  -0.000222   0.000000  -0.000000   0.000000   0.000000
    11  C    0.408016   0.400032  -0.000000   0.000000   0.000000  -0.000000
    12  H   -0.030023  -0.033271  -0.000000   0.000000  -0.000000  -0.000000
    13  H    0.573921  -0.026854   0.000000  -0.000000  -0.000000  -0.000000
    14  H   -0.026854   0.584228   0.000000  -0.000000  -0.000000   0.000000
    15  C    0.000000   0.000000   4.903246   0.396991   0.405428   0.399263
    16  H   -0.000000  -0.000000   0.396991   0.594294  -0.027368  -0.034903
    17  H   -0.000000  -0.000000   0.405428  -0.027368   0.568033  -0.027571
    18  H   -0.000000   0.000000   0.399263  -0.034903  -0.027571   0.593084
    19  C   -0.000013  -0.000000   0.352288  -0.044298  -0.040393  -0.045766
    20  C    0.000010   0.000002  -0.065386  -0.002140   0.003696  -0.001106
    21  H    0.000034  -0.000000  -0.003430   0.002847   0.000010  -0.000507
    22  H    0.000571  -0.000008   0.003678  -0.000072  -0.000108  -0.000023
    23  H   -0.000006   0.000000  -0.001686  -0.000371  -0.000079   0.002553
    24  C    0.000003   0.000002  -0.044859  -0.000547  -0.002387  -0.001135
    25  H   -0.000001   0.000000  -0.006747   0.000235   0.002177   0.000150
    26  C   -0.000212  -0.000050   0.003152  -0.000086   0.000146  -0.000124
    27  H   -0.000251   0.000023   0.000071  -0.000004   0.000006   0.000004
    28  H   -0.000008  -0.000000  -0.000102  -0.000002  -0.000011   0.000012
              19         20         21         22         23         24
     1  C   -0.003607   0.000597   0.000077  -0.000053  -0.000041  -0.063062
     2  H    0.000615  -0.000016  -0.000001  -0.000012   0.000000  -0.000608
     3  H    0.001046   0.000160  -0.000076  -0.000052   0.000014  -0.000806
     4  C    0.000006  -0.000017  -0.000002  -0.000027   0.000001   0.006130
     5  C   -0.000002  -0.000000   0.000000  -0.000000  -0.000000  -0.000158
     6  H    0.000000  -0.000000  -0.000000  -0.000000   0.000000   0.000001
     7  H    0.000000  -0.000000   0.000000   0.000000   0.000000  -0.000086
     8  H    0.000000  -0.000000  -0.000000   0.000000   0.000000   0.000003
     9  C    0.000001   0.000010   0.000000  -0.000032   0.000000   0.000070
    10  H    0.000000  -0.000000  -0.000000   0.000000   0.000000   0.000002
    11  C    0.000007  -0.000097  -0.000003   0.000040   0.000002  -0.000032
    12  H    0.000000  -0.000004   0.000000   0.000042  -0.000000  -0.000004
    13  H   -0.000013   0.000010   0.000034   0.000571  -0.000006   0.000003
    14  H   -0.000000   0.000002  -0.000000  -0.000008   0.000000   0.000002
    15  C    0.352288  -0.065386  -0.003430   0.003678  -0.001686  -0.044859
    16  H   -0.044298  -0.002140   0.002847  -0.000072  -0.000371  -0.000547
    17  H   -0.040393   0.003696   0.000010  -0.000108  -0.000079  -0.002387
    18  H   -0.045766  -0.001106  -0.000507  -0.000023   0.002553  -0.001135
    19  C    4.918213   0.348391  -0.043929  -0.037059  -0.043830   0.698175
    20  C    0.348391   4.909257   0.402439   0.406149   0.398268  -0.043325
    21  H   -0.043929   0.402439   0.586209  -0.030006  -0.033099   0.000447
    22  H   -0.037059   0.406149  -0.030006   0.568184  -0.026279  -0.002870
    23  H   -0.043830   0.398268  -0.033099  -0.026279   0.582548  -0.000841
    24  C    0.698175  -0.043325   0.000447  -0.002870  -0.000841   4.961514
    25  H   -0.036142   0.003366  -0.000110   0.000059  -0.000126   0.402021
    26  C   -0.048261  -0.007534   0.000286  -0.001945   0.000188   0.339917
    27  H    0.000822  -0.002065  -0.000043  -0.001170   0.000056  -0.043813
    28  H    0.000914   0.000169  -0.000012   0.000031   0.000032  -0.043354
              25         26         27         28
     1  C    0.000004   0.326230  -0.040299  -0.045129
     2  H    0.001003  -0.044607   0.004203  -0.002603
     3  H    0.000213  -0.039847  -0.002144   0.004289
     4  C   -0.000155  -0.057367  -0.001437  -0.001850
     5  C    0.000010  -0.000187   0.000317  -0.000392
     6  H   -0.000002   0.000027   0.000012   0.000093
     7  H    0.000012   0.000810  -0.000009  -0.000187
     8  H   -0.000000  -0.000097  -0.000010  -0.000025
     9  C   -0.000002  -0.004368   0.001216   0.000514
    10  H   -0.000000  -0.000116  -0.000044   0.000004
    11  C    0.000000   0.000690   0.000070  -0.000030
    12  H    0.000000   0.000091  -0.000079   0.000000
    13  H   -0.000001  -0.000212  -0.000251  -0.000008
    14  H    0.000000  -0.000050   0.000023  -0.000000
    15  C   -0.006747   0.003152   0.000071  -0.000102
    16  H    0.000235  -0.000086  -0.000004  -0.000002
    17  H    0.002177   0.000146   0.000006  -0.000011
    18  H    0.000150  -0.000124   0.000004   0.000012
    19  C   -0.036142  -0.048261   0.000822   0.000914
    20  C    0.003366  -0.007534  -0.002065   0.000169
    21  H   -0.000110   0.000286  -0.000043  -0.000012
    22  H    0.000059  -0.001945  -0.001170   0.000031
    23  H   -0.000126   0.000188   0.000056   0.000032
    24  C    0.402021   0.339917  -0.043813  -0.043354
    25  H    0.558505  -0.041270   0.003230  -0.003485
    26  C   -0.041270   4.982313   0.414872   0.413778
    27  H    0.003230   0.414872   0.571236  -0.029590
    28  H   -0.003485   0.413778  -0.029590   0.588463
 Mulliken charges:
               1
     1  C   -0.234048
     2  H    0.115644
     3  H    0.126402
     4  C    0.015525
     5  C   -0.339903
     6  H    0.115831
     7  H    0.115147
     8  H    0.116743
     9  C   -0.155170
    10  H    0.116499
    11  C   -0.355607
    12  H    0.118251
    13  H    0.116923
    14  H    0.121564
    15  C   -0.341765
    16  H    0.115409
    17  H    0.118423
    18  H    0.116071
    19  C    0.022823
    20  C   -0.350821
    21  H    0.118871
    22  H    0.120962
    23  H    0.122698
    24  C   -0.160398
    25  H    0.117056
    26  C   -0.236430
    27  H    0.124819
    28  H    0.118481
 Sum of Mulliken charges =  -0.00000
 Mulliken charges with hydrogens summed into heavy atoms:
               1
     1  C    0.007998
     4  C    0.015525
     5  C    0.007817
     9  C   -0.038672
    11  C    0.001131
    15  C    0.008139
    19  C    0.022823
    20  C    0.011710
    24  C   -0.043341
    26  C    0.006870
 Electronic spatial extent (au):  <R**2>=           2423.6506
 Charge=             -0.0000 electrons
 Dipole moment (field-independent basis, Debye):
    X=             -0.2950    Y=              0.1260    Z=             -0.0059  Tot=              0.3208
 Quadrupole moment (field-independent basis, Debye-Ang):
   XX=            -64.5128   YY=            -63.6028   ZZ=            -67.0543
   XY=             -0.6104   XZ=             -0.8628   YZ=             -0.4852
 Traceless Quadrupole moment (field-independent basis, Debye-Ang):
   XX=              0.5438   YY=              1.4538   ZZ=             -1.9977
   XY=             -0.6104   XZ=             -0.8628   YZ=             -0.4852
 Octapole moment (field-independent basis, Debye-Ang**2):
  XXX=             -1.3742  YYY=             -2.7217  ZZZ=              0.1857  XYY=              0.5712
  XXY=              4.5334  XXZ=             -2.6513  XZZ=             -1.5760  YZZ=              1.2282
  YYZ=              1.3700  XYZ=              0.7525
 Hexadecapole moment (field-independent basis, Debye-Ang**3):
 XXXX=          -2492.3055 YYYY=           -696.1036 ZZZZ=           -174.8267 XXXY=              2.3497
 XXXZ=            -11.9437 YYYX=              9.3556 YYYZ=             -3.0502 ZZZX=              0.8368
 ZZZY=             -0.0645 XXYY=           -530.4676 XXZZ=           -456.3155 YYZZ=           -139.1705
 XXYZ=             -4.2371 YYXZ=             -3.1977 ZZXY=             -4.6968
 N-N= 5.164365297706D+02 E-N=-1.937506796129D+03  KE= 3.886259104524D+02
 No NMR shielding tensors so no spin-rotation constants.
 Leave Link  601 at Fri Sep 17 14:25:58 2021, MaxMem=   524288000 cpu:               0.2 elap:               0.2
 (Enter /opt/gaussian/g16_legacy/l701.exe)
 ... and contract with generalized density number  2.
 Compute integral first derivatives.
 Leave Link  701 at Fri Sep 17 14:25:58 2021, MaxMem=   524288000 cpu:               0.1 elap:               0.1
 (Enter /opt/gaussian/g16_legacy/l702.exe)
 L702 exits ... SP integral derivatives will be done elsewhere.
 Leave Link  702 at Fri Sep 17 14:25:58 2021, MaxMem=   524288000 cpu:               0.0 elap:               0.0
 (Enter /opt/gaussian/g16_legacy/l703.exe)
 Integral derivatives from FoFJK, PRISM(SPDF).
 Compute integral first derivatives, UseDBF=F ICtDFT=           0.
 Calling FoFJK, ICntrl=  10002127 FMM=F ISym2X=0 I1Cent= 0 IOpClX= 0 NMat=1 NMatS=1 NMatT=0.
 FoFJK:  IHMeth= 1 ICntrl=10002127 DoSepK=F KAlg= 0 I1Cent=           0 FoldK=F
 IRaf=         0 NMat=       1 IRICut=       1 DoRegI=T DoRafI=F ISym2E= 0 IDoP0=0 IntGTp=1.
 FoFCou: FMM=F IPFlag=           0 FMFlag=      100000 FMFlg1=         800
         NFxFlg=           0 DoJE=F BraDBF=F KetDBF=F FulRan=T
         wScrn=  0.000000 ICntrl=  10002127 IOpCl=  0 I1Cent=           0 NGrid=           0
         NMat0=    1 NMatS0=      1 NMatT0=    0 NMatD0=    1 NMtDS0=    0 NMtDT0=    0
 Symmetry not used in FoFCou.
 Leave Link  703 at Fri Sep 17 14:26:18 2021, MaxMem=   524288000 cpu:              20.1 elap:              20.1
 (Enter /opt/gaussian/g16_legacy/l716.exe)
 Dipole        =-9.11610884D-02 6.68561304D-02-4.77108157D-03
 ***** Axes restored to original set *****
 -------------------------------------------------------------------
 Center     Atomic                   Forces (Hartrees/Bohr)
 Number     Number              X              Y              Z
 -------------------------------------------------------------------
      1        6          -0.008045520   -0.001048409   -0.004862902
      2        1           0.000452193    0.003756504    0.000459505
      3        1           0.001058872    0.003874221    0.002426698
      4        6          -0.004506141   -0.004623445    0.000475642
      5        6          -0.002800881    0.001549177    0.000178948
      6        1           0.001631880    0.002574130    0.001419350
      7        1          -0.000792362   -0.003251358    0.000414293
      8        1           0.003692674   -0.000490997   -0.001772967
      9        6           0.002275682    0.001621046    0.002546483
     10        1           0.002507515   -0.001271053    0.002237894
     11        6           0.001796132    0.000418367   -0.002061303
     12        1          -0.000290116   -0.003136823   -0.001428529
     13        1          -0.002892772   -0.000824365    0.001544238
     14        1           0.001605042    0.002686354   -0.001412707
     15        6           0.000041918   -0.002325616    0.002486323
     16        1           0.002097022    0.002699514    0.000868036
     17        1          -0.002247261    0.002719150   -0.002517328
     18        1          -0.000425246   -0.002400848   -0.002313552
     19        6          -0.000785587   -0.004756035    0.002373751
     20        6          -0.004211238    0.001751312   -0.000430061
     21        1           0.001874068    0.002203580    0.002289832
     22        1           0.002615686   -0.000802267    0.002126515
     23        1          -0.000422002   -0.001920944   -0.002457523
     24        6          -0.000794027    0.004234275    0.002968118
     25        1           0.001614424    0.000353286   -0.002958030
     26        6           0.007732985    0.001761950    0.000432887
     27        1          -0.000747681   -0.003880394   -0.000753676
     28        1          -0.002035257   -0.001470310   -0.002279937
 -------------------------------------------------------------------
 Cartesian Forces:  Max     0.008045520 RMS     0.002575209
 Leave Link  716 at Fri Sep 17 14:26:18 2021, MaxMem=   524288000 cpu:               0.0 elap:               0.0
 (Enter /opt/gaussian/g16_legacy/l103.exe)

 GradGradGradGradGradGradGradGradGradGradGradGradGradGradGradGradGradGrad
 Berny optimization.
 FormGI is forming the generalized inverse of G from B-inverse, IUseBI=4.
 Internal  Forces:  Max     0.004876146 RMS     0.001918290
 Search for a local minimum.
 Step number   1 out of a maximum of  138
 All quantities printed in internal units (Hartrees-Bohrs-Radians)
 RMS Force = .19183D-02 SwitMx=.10000D-02 MixMth= 1
 Mixed Optimization -- RFO/linear search
 Second derivative matrix not updated -- first step.
 ITU=  0
     Eigenvalues ---    0.00342   0.00571   0.00670   0.00680   0.00692
     Eigenvalues ---    0.00715   0.00818   0.01219   0.01287   0.01568
     Eigenvalues ---    0.01641   0.02779   0.02784   0.04018   0.04138
     Eigenvalues ---    0.05349   0.05399   0.06978   0.07036   0.07090
     Eigenvalues ---    0.07092   0.07269   0.07300   0.07347   0.07505
     Eigenvalues ---    0.09277   0.09362   0.12766   0.12843   0.15999
     Eigenvalues ---    0.15999   0.16000   0.16000   0.16000   0.16000
     Eigenvalues ---    0.16000   0.16000   0.16000   0.16000   0.16000
     Eigenvalues ---    0.16000   0.16000   0.16000   0.21858   0.21866
     Eigenvalues ---    0.22000   0.22000   0.24994   0.24997   0.24998
     Eigenvalues ---    0.24999   0.29238   0.30877   0.31632   0.31708
     Eigenvalues ---    0.31800   0.31976   0.32797   0.33864   0.33976
     Eigenvalues ---    0.34062   0.34188   0.34218   0.34232   0.34247
     Eigenvalues ---    0.34247   0.34248   0.34253   0.34261   0.34263
     Eigenvalues ---    0.34295   0.34338   0.34547   0.34551   0.34806
     Eigenvalues ---    0.34842   0.55492   0.55569
 RFO step:  Lambda=-2.95968480D-03 EMin= 3.42495353D-03
 Linear search not attempted -- first point.
 Iteration  1 RMS(Cart)=  0.03969064 RMS(Int)=  0.00072326
 Iteration  2 RMS(Cart)=  0.00093394 RMS(Int)=  0.00016604
 Iteration  3 RMS(Cart)=  0.00000043 RMS(Int)=  0.00016604
 ITry= 1 IFail=0 DXMaxC= 1.81D-01 DCOld= 1.00D+10 DXMaxT= 3.00D-01 DXLimC= 3.00D+00 Rises=F
 Variable       Old X    -DE/DX   Delta X   Delta X   Delta X     New X
                                 (Linear)    (Quad)   (Total)
    R1        2.07560  -0.00279   0.00000  -0.00817  -0.00817   2.06743
    R2        2.07226  -0.00332   0.00000  -0.00966  -0.00966   2.06260
    R3        2.86248  -0.00350   0.00000  -0.01122  -0.01122   2.85126
    R4        2.89508   0.00172   0.00000   0.00583   0.00583   2.90092
    R5        2.84823  -0.00046   0.00000  -0.00145  -0.00145   2.84678
    R6        2.54697  -0.00398   0.00000  -0.00714  -0.00714   2.53983
    R7        2.06905  -0.00214   0.00000  -0.00620  -0.00620   2.06285
    R8        2.06835  -0.00180   0.00000  -0.00519  -0.00519   2.06316
    R9        2.06964  -0.00373   0.00000  -0.01082  -0.01082   2.05882
   R10        2.05932  -0.00225   0.00000  -0.00640  -0.00640   2.05292
   R11        2.82709   0.00311   0.00000   0.00940   0.00940   2.83649
   R12        2.06891  -0.00259   0.00000  -0.00751  -0.00751   2.06141
   R13        2.06411  -0.00292   0.00000  -0.00838  -0.00838   2.05573
   R14        2.06764  -0.00156   0.00000  -0.00451  -0.00451   2.06313
   R15        2.06913  -0.00199   0.00000  -0.00577  -0.00577   2.06336
   R16        2.06941  -0.00394   0.00000  -0.01141  -0.01141   2.05800
   R17        2.06915  -0.00200   0.00000  -0.00578  -0.00578   2.06337
   R18        2.84682  -0.00077   0.00000  -0.00241  -0.00241   2.84441
   R19        2.84189  -0.00046   0.00000  -0.00142  -0.00142   2.84046
   R20        2.54630  -0.00328   0.00000  -0.00587  -0.00587   2.54043
   R21        2.07014  -0.00268   0.00000  -0.00777  -0.00777   2.06237
   R22        2.06417  -0.00284   0.00000  -0.00815  -0.00815   2.05602
   R23        2.06888  -0.00187   0.00000  -0.00541  -0.00541   2.06346
   R24        2.05991  -0.00193   0.00000  -0.00549  -0.00549   2.05442
   R25        2.84511  -0.00152   0.00000  -0.00474  -0.00474   2.84038
   R26        2.06916  -0.00277   0.00000  -0.00803  -0.00803   2.06113
   R27        2.07371  -0.00236   0.00000  -0.00689  -0.00689   2.06682
    A1        1.82990   0.00207   0.00000   0.02247   0.02230   1.85221
    A2        1.90265  -0.00069   0.00000  -0.00271  -0.00270   1.89995
    A3        1.91998  -0.00194   0.00000  -0.01718  -0.01721   1.90277
    A4        1.93015   0.00043   0.00000   0.00926   0.00930   1.93945
    A5        1.91841  -0.00278   0.00000  -0.02028  -0.02032   1.89809
    A6        1.95838   0.00283   0.00000   0.00911   0.00915   1.96753
    A7        2.00835   0.00236   0.00000   0.00965   0.00908   2.01744
    A8        2.17067  -0.00488   0.00000  -0.01891  -0.01944   2.15123
    A9        2.10398   0.00253   0.00000   0.01037   0.00979   2.11377
   A10        1.92478   0.00166   0.00000   0.00903   0.00905   1.93383
   A11        1.92810   0.00227   0.00000   0.01212   0.01214   1.94024
   A12        1.95932  -0.00263   0.00000  -0.01315  -0.01311   1.94621
   A13        1.89484  -0.00306   0.00000  -0.02461  -0.02461   1.87024
   A14        1.87765   0.00109   0.00000   0.01012   0.01015   1.88781
   A15        1.87699   0.00056   0.00000   0.00565   0.00569   1.88267
   A16        2.06966  -0.00194   0.00000  -0.01337  -0.01339   2.05627
   A17        2.22517  -0.00188   0.00000  -0.00841  -0.00843   2.21674
   A18        1.98821   0.00382   0.00000   0.02196   0.02194   2.01015
   A19        1.91004   0.00237   0.00000   0.01558   0.01553   1.92557
   A20        1.98122  -0.00299   0.00000  -0.01840  -0.01831   1.96291
   A21        1.91728   0.00395   0.00000   0.02327   0.02323   1.94051
   A22        1.87257   0.00053   0.00000   0.00502   0.00509   1.87766
   A23        1.88724  -0.00310   0.00000  -0.01892  -0.01909   1.86814
   A24        1.89287  -0.00095   0.00000  -0.00763  -0.00753   1.88534
   A25        1.87919   0.00092   0.00000   0.00936   0.00940   1.88859
   A26        1.89483  -0.00313   0.00000  -0.02539  -0.02538   1.86945
   A27        1.92499   0.00219   0.00000   0.01228   0.01231   1.93730
   A28        1.87873   0.00093   0.00000   0.00800   0.00803   1.88676
   A29        1.96061  -0.00277   0.00000  -0.01384  -0.01380   1.94681
   A30        1.92348   0.00174   0.00000   0.00875   0.00877   1.93225
   A31        1.99468   0.00147   0.00000   0.00583   0.00581   2.00049
   A32        2.10581   0.00182   0.00000   0.00724   0.00722   2.11303
   A33        2.18265  -0.00329   0.00000  -0.01296  -0.01298   2.16967
   A34        1.92084  -0.00000   0.00000  -0.00091  -0.00090   1.91994
   A35        1.97976  -0.00222   0.00000  -0.01022  -0.01020   1.96956
   A36        1.92159   0.00231   0.00000   0.01172   0.01174   1.93334
   A37        1.86375   0.00200   0.00000   0.01693   0.01694   1.88069
   A38        1.89063  -0.00240   0.00000  -0.02160  -0.02158   1.86905
   A39        1.88437   0.00024   0.00000   0.00331   0.00333   1.88770
   A40        2.06712  -0.00167   0.00000  -0.01181  -0.01221   2.05492
   A41        2.22712  -0.00225   0.00000  -0.00992  -0.01034   2.21679
   A42        1.98881   0.00394   0.00000   0.02252   0.02210   2.01091
   A43        1.94448   0.00330   0.00000   0.01366   0.01368   1.95817
   A44        1.92597  -0.00263   0.00000  -0.02486  -0.02493   1.90104
   A45        1.92094  -0.00239   0.00000  -0.01482  -0.01502   1.90592
   A46        1.94655  -0.00053   0.00000  -0.00240  -0.00235   1.94421
   A47        1.88056   0.00061   0.00000   0.01711   0.01716   1.89772
   A48        1.84202   0.00154   0.00000   0.01181   0.01155   1.85357
    D1        0.63954  -0.00058   0.00000   0.02161   0.02137   0.66091
    D2       -2.48156  -0.00156   0.00000  -0.04065  -0.04045  -2.52201
    D3        2.64263   0.00174   0.00000   0.05221   0.05200   2.69462
    D4       -0.47848   0.00076   0.00000  -0.01005  -0.00982  -0.48830
[...]
                 (A) (A) (A) (A) (A) (A) (A) (A) (A) (A) (A) (A)
                 (A) (A) (A) (A) (A) (A) (A) (A) (A) (A) (A) (A)
                 (A) (A) (A) (A) (A) (A) (A) (A) (A) (A) (A) (A)
                 (A) (A) (A) (A) (A) (A) (A) (A) (A) (A) (A) (A)
                 (A) (A) (A) (A) (A) (A) (A) (A) (A) (A) (A) (A)
                 (A) (A) (A) (A) (A) (A) (A) (A) (A) (A) (A) (A)
                 (A) (A) (A) (A) (A) (A) (A) (A) (A) (A) (A) (A)
                 (A) (A) (A) (A) (A) (A) (A) (A) (A) (A) (A) (A)
                 (A) (A) (A) (A) (A) (A) (A) (A) (A) (A) (A) (A)
                 (A) (A) (A) (A) (A) (A) (A) (A) (A) (A) (A) (A)
                 (A) (A) (A) (A) (A) (A) (A) (A) (A) (A) (A) (A)
                 (A) (A) (A) (A) (A) (A) (A) (A) (A) (A) (A) (A)
                 (A) (A) (A) (A) (A) (A) (A) (A) (A)
 The electronic state is 1-A.
 Alpha  occ. eigenvalues --  -11.23020 -11.22460 -11.21868 -11.21730 -11.21712
 Alpha  occ. eigenvalues --  -11.21539 -11.21506 -11.21436 -11.21417 -11.21348
 Alpha  occ. eigenvalues --   -1.10821  -1.08492  -1.01823  -0.98143  -0.93838
 Alpha  occ. eigenvalues --   -0.91939  -0.86963  -0.82855  -0.70494  -0.69519
 Alpha  occ. eigenvalues --   -0.64988  -0.61512  -0.60591  -0.58878  -0.58366
 Alpha  occ. eigenvalues --   -0.56774  -0.55298  -0.54966  -0.53295  -0.52261
 Alpha  occ. eigenvalues --   -0.51859  -0.51173  -0.50832  -0.49581  -0.48519
 Alpha  occ. eigenvalues --   -0.46073  -0.44624  -0.33371  -0.31514
 Alpha virt. eigenvalues --    0.18142   0.19779   0.22152   0.24486   0.25192
 Alpha virt. eigenvalues --    0.27439   0.28535   0.28922   0.30318   0.30811
 Alpha virt. eigenvalues --    0.31477   0.32261   0.33202   0.33794   0.34383
 Alpha virt. eigenvalues --    0.35458   0.36114   0.36962   0.39185   0.40602
 Alpha virt. eigenvalues --    0.41328   0.42631   0.43685   0.44253   0.45395
 Alpha virt. eigenvalues --    0.51702   0.54378   0.61070   0.62576   0.70520
 Alpha virt. eigenvalues --    0.71073   0.72196   0.73768   0.76075   0.76177
 Alpha virt. eigenvalues --    0.76620   0.79010   0.79474   0.81070   0.82306
 Alpha virt. eigenvalues --    0.83713   0.85579   0.89117   0.91091   0.91343
 Alpha virt. eigenvalues --    0.92820   0.94745   0.97065   0.98284   0.98818
 Alpha virt. eigenvalues --    0.99710   1.00468   1.01911   1.03844   1.06577
 Alpha virt. eigenvalues --    1.08019   1.08221   1.09393   1.11664   1.12687
 Alpha virt. eigenvalues --    1.13026   1.13870   1.14856   1.15402   1.16045
 Alpha virt. eigenvalues --    1.16257   1.16619   1.18722   1.19116   1.20671
 Alpha virt. eigenvalues --    1.20953   1.23032   1.23885   1.25765   1.28153
 Alpha virt. eigenvalues --    1.34331   1.41723   1.42153   1.44890   1.46395
 Alpha virt. eigenvalues --    1.48456   1.54136   1.55360   1.57256   1.58165
 Alpha virt. eigenvalues --    1.61459   1.63397   1.66485   1.69046   1.69645
 Alpha virt. eigenvalues --    1.73917   1.82243   1.91111   1.93363   1.96231
 Alpha virt. eigenvalues --    1.98688   2.01467   2.02277   2.03942   2.08565
 Alpha virt. eigenvalues --    2.09706   2.10748   2.11744   2.13037   2.14903
 Alpha virt. eigenvalues --    2.15780   2.16940   2.19854   2.23666   2.28347
 Alpha virt. eigenvalues --    2.29590   2.30325   2.33235   2.35347   2.35688
 Alpha virt. eigenvalues --    2.35978   2.36098   2.38923   2.40264   2.41259
 Alpha virt. eigenvalues --    2.42195   2.43169   2.44154   2.45371   2.46084
 Alpha virt. eigenvalues --    2.47201   2.49167   2.49622   2.51174   2.54099
 Alpha virt. eigenvalues --    2.57315   2.58365   2.61888   2.63241   2.64107
 Alpha virt. eigenvalues --    2.67127   2.68175   2.71776   2.73352   2.73474
 Alpha virt. eigenvalues --    2.75815   2.77410   2.80796   2.82634   2.85354
 Alpha virt. eigenvalues --    2.87137   2.89441   2.92178   2.93739   2.94867
 Alpha virt. eigenvalues --    2.97869   2.99094   3.00960   3.02677   3.05807
 Alpha virt. eigenvalues --    3.06402   3.07703   3.09315   3.13762   3.17093
 Alpha virt. eigenvalues --    3.17589   3.19238   3.20046   3.21242   3.22334
 Alpha virt. eigenvalues --    3.24167   3.25050   3.26607   3.27420   3.37866
 Alpha virt. eigenvalues --    3.40355   3.46023   3.46902   3.56200   3.58183
 Alpha virt. eigenvalues --    3.59499   3.62406   3.67928   3.75494   3.78622
 Alpha virt. eigenvalues --    3.80005   3.81570   3.82569   3.83286   3.83898
 Alpha virt. eigenvalues --    3.84750   3.86481   3.87645   3.89820   3.91558
 Alpha virt. eigenvalues --    3.97645   4.59389   4.63170   4.74472   4.82572
 Alpha virt. eigenvalues --    4.88928   4.92582   4.93409   5.07840   5.10766
 Alpha virt. eigenvalues --    5.17766
          Condensed to atoms (all electrons):
               1          2          3          4          5          6
     1  C    5.004767   0.414473   0.411715   0.337355  -0.056085  -0.003698
     2  H    0.414473   0.587507  -0.028295  -0.046308  -0.004587   0.002378
     3  H    0.411715  -0.028295   0.572983  -0.038988   0.003071  -0.000034
     4  C    0.337355  -0.046308  -0.038988   4.952603   0.351934  -0.041506
     5  C   -0.056085  -0.004587   0.003071   0.351934   4.891804   0.397495
     6  H   -0.003698   0.002378  -0.000034  -0.041506   0.397495   0.591921
     7  H    0.000011  -0.000489  -0.000005  -0.045679   0.400946  -0.037541
     8  H    0.003801   0.000106  -0.000108  -0.042765   0.407087  -0.026764
     9  C   -0.047991   0.002531  -0.001860   0.697840  -0.046054  -0.000373
    10  H    0.003272  -0.000118   0.000031  -0.037842  -0.006525   0.000216
    11  C   -0.007749   0.000160  -0.002811  -0.050271   0.003364  -0.000105
    12  H    0.000310  -0.000013  -0.000067  -0.000247  -0.000095  -0.000004
    13  H   -0.001745   0.000030  -0.001657  -0.000691   0.000109   0.000002
    14  H    0.000152   0.000017   0.000184  -0.000627  -0.000106   0.000017
    15  C   -0.000099  -0.000004  -0.000043   0.000001  -0.000000  -0.000000
    16  H    0.000024  -0.000002  -0.000007  -0.000000   0.000000  -0.000000
    17  H   -0.000003   0.000003  -0.000002   0.000000  -0.000000  -0.000000
    18  H   -0.000005   0.000000   0.000002   0.000000  -0.000000   0.000000
    19  C   -0.004325   0.000787   0.001388   0.000041  -0.000003   0.000000
    20  C    0.000587  -0.000015   0.000200  -0.000018  -0.000000   0.000000
    21  H    0.000130  -0.000002  -0.000135  -0.000005   0.000000  -0.000000
    22  H   -0.000302  -0.000016  -0.000131  -0.000011  -0.000000  -0.000000
    23  H   -0.000040   0.000000   0.000022   0.000001  -0.000000   0.000000
    24  C   -0.061827  -0.000900  -0.000504   0.006443  -0.000149   0.000004
    25  H    0.000175   0.001011   0.000111  -0.000152   0.000010  -0.000001
    26  C    0.332330  -0.046074  -0.041801  -0.055544  -0.000661   0.000086
    27  H   -0.042370   0.004477  -0.003118  -0.001813   0.000243   0.000006
    28  H   -0.046841  -0.001931   0.004515  -0.002075  -0.000289   0.000058
               7          8          9         10         11         12
     1  C    0.000011   0.003801  -0.047991   0.003272  -0.007749   0.000310
     2  H   -0.000489   0.000106   0.002531  -0.000118   0.000160  -0.000013
     3  H   -0.000005  -0.000108  -0.001860   0.000031  -0.002811  -0.000067
     4  C   -0.045679  -0.042765   0.697840  -0.037842  -0.050271  -0.000247
     5  C    0.400946   0.407087  -0.046054  -0.006525   0.003364  -0.000095
     6  H   -0.037541  -0.026764  -0.000373   0.000216  -0.000105  -0.000004
     7  H    0.596034  -0.027466  -0.001011   0.000135  -0.000101   0.000017
     8  H   -0.027466   0.568858  -0.002890   0.002385   0.000132  -0.000006
     9  C   -0.001011  -0.002890   4.938970   0.404494   0.340494  -0.041805
    10  H    0.000135   0.002385   0.404494   0.558671  -0.041279  -0.001264
    11  C   -0.000101   0.000132   0.340494  -0.041279   4.900974   0.402169
    12  H    0.000017  -0.000006  -0.041805  -0.001264   0.402169   0.586720
    13  H   -0.000003   0.000005  -0.043903   0.003299   0.409079  -0.029956
    14  H   -0.000004  -0.000006  -0.041523  -0.001122   0.401144  -0.035462
    15  C   -0.000000   0.000000  -0.000000   0.000000  -0.000000  -0.000000
    16  H    0.000000  -0.000000   0.000000  -0.000000  -0.000000   0.000000
    17  H   -0.000000   0.000000  -0.000000   0.000000   0.000000  -0.000000
    18  H    0.000000   0.000000   0.000000   0.000000   0.000000  -0.000000
    19  C    0.000000   0.000000  -0.000001   0.000000   0.000013   0.000001
    20  C   -0.000000  -0.000000   0.000015  -0.000000  -0.000147  -0.000015
    21  H    0.000000  -0.000000   0.000000  -0.000000  -0.000009   0.000000
    22  H    0.000000   0.000000  -0.000045   0.000000   0.000074   0.000114
    23  H   -0.000000   0.000000   0.000000   0.000000   0.000003  -0.000000
    24  C   -0.000111   0.000004   0.000114   0.000002  -0.000031  -0.000009
    25  H    0.000015  -0.000000  -0.000002  -0.000000   0.000000   0.000000
    26  C    0.000609  -0.000109  -0.004911  -0.000113   0.000577   0.000163
    27  H   -0.000015  -0.000005   0.001406  -0.000046  -0.000082  -0.000140
    28  H    0.000197  -0.000050   0.000760   0.000001  -0.000033  -0.000000
              13         14         15         16         17         18
     1  C   -0.001745   0.000152  -0.000099   0.000024  -0.000003  -0.000005
     2  H    0.000030   0.000017  -0.000004  -0.000002   0.000003   0.000000
     3  H   -0.001657   0.000184  -0.000043  -0.000007  -0.000002   0.000002
     4  C   -0.000691  -0.000627   0.000001  -0.000000   0.000000   0.000000
     5  C    0.000109  -0.000106  -0.000000   0.000000  -0.000000  -0.000000
     6  H    0.000002   0.000017  -0.000000  -0.000000  -0.000000   0.000000
     7  H   -0.000003  -0.000004  -0.000000   0.000000  -0.000000   0.000000
     8  H    0.000005  -0.000006   0.000000  -0.000000   0.000000   0.000000
     9  C   -0.043903  -0.041523  -0.000000   0.000000  -0.000000   0.000000
    10  H    0.003299  -0.001122   0.000000  -0.000000   0.000000   0.000000
    11  C    0.409079   0.401144  -0.000000  -0.000000   0.000000   0.000000
    12  H   -0.029956  -0.035462  -0.000000   0.000000  -0.000000  -0.000000
    13  H    0.577164  -0.027132   0.000000  -0.000000  -0.000000  -0.000000
    14  H   -0.027132   0.583648   0.000000  -0.000000  -0.000000   0.000000
    15  C    0.000000   0.000000   4.900112   0.398238   0.406218   0.398811
    16  H   -0.000000  -0.000000   0.398238   0.594542  -0.026703  -0.037806
    17  H   -0.000000  -0.000000   0.406218  -0.026703   0.566018  -0.026549
    18  H   -0.000000   0.000000   0.398811  -0.037806  -0.026549   0.593607
    19  C   -0.000026  -0.000000   0.353753  -0.043899  -0.041639  -0.044274
    20  C   -0.000000   0.000004  -0.064931  -0.001975   0.003785  -0.001201
    21  H    0.000079  -0.000000  -0.002632   0.002756  -0.000032  -0.000476
    22  H    0.000412  -0.000013   0.003725  -0.000068  -0.000113  -0.000031
    23  H   -0.000008   0.000000  -0.002223  -0.000456  -0.000053   0.002766
    24  C    0.000026   0.000002  -0.044415  -0.000422  -0.002632  -0.001270
    25  H   -0.000002   0.000000  -0.006963   0.000182   0.002335   0.000187
    26  C   -0.000737  -0.000037   0.003126  -0.000068   0.000148  -0.000131
    27  H   -0.000475   0.000037   0.000051  -0.000005   0.000007   0.000007
    28  H   -0.000010  -0.000000  -0.000094  -0.000002  -0.000010   0.000009
              19         20         21         22         23         24
     1  C   -0.004325   0.000587   0.000130  -0.000302  -0.000040  -0.061827
     2  H    0.000787  -0.000015  -0.000002  -0.000016   0.000000  -0.000900
     3  H    0.001388   0.000200  -0.000135  -0.000131   0.000022  -0.000504
     4  C    0.000041  -0.000018  -0.000005  -0.000011   0.000001   0.006443
     5  C   -0.000003  -0.000000   0.000000  -0.000000  -0.000000  -0.000149
     6  H    0.000000   0.000000  -0.000000  -0.000000   0.000000   0.000004
     7  H    0.000000  -0.000000   0.000000   0.000000  -0.000000  -0.000111
     8  H    0.000000  -0.000000  -0.000000   0.000000   0.000000   0.000004
     9  C   -0.000001   0.000015   0.000000  -0.000045   0.000000   0.000114
    10  H    0.000000  -0.000000  -0.000000   0.000000   0.000000   0.000002
    11  C    0.000013  -0.000147  -0.000009   0.000074   0.000003  -0.000031
    12  H    0.000001  -0.000015   0.000000   0.000114  -0.000000  -0.000009
    13  H   -0.000026  -0.000000   0.000079   0.000412  -0.000008   0.000026
    14  H   -0.000000   0.000004  -0.000000  -0.000013   0.000000   0.000002
    15  C    0.353753  -0.064931  -0.002632   0.003725  -0.002223  -0.044415
    16  H   -0.043899  -0.001975   0.002756  -0.000068  -0.000456  -0.000422
    17  H   -0.041639   0.003785  -0.000032  -0.000113  -0.000053  -0.002632
    18  H   -0.044274  -0.001201  -0.000476  -0.000031   0.002766  -0.001270
    19  C    4.914192   0.350333  -0.043384  -0.037848  -0.043537   0.697734
    20  C    0.350333   4.907254   0.401208   0.407154   0.399852  -0.044248
    21  H   -0.043384   0.401208   0.587442  -0.028659  -0.035759  -0.000031
    22  H   -0.037848   0.407154  -0.028659   0.568221  -0.026060  -0.003253
    23  H   -0.043537   0.399852  -0.035759  -0.026060   0.584669  -0.000365
    24  C    0.697734  -0.044248  -0.000031  -0.003253  -0.000365   4.962747
    25  H   -0.038449   0.003528  -0.000121   0.000061  -0.000121   0.403391
    26  C   -0.050100  -0.008144   0.000367  -0.002069   0.000117   0.338699
    27  H    0.000438  -0.002693  -0.000076  -0.001675   0.000113  -0.044060
    28  H    0.001583   0.000195  -0.000014   0.000058   0.000021  -0.041394
              25         26         27         28
     1  C    0.000175   0.332330  -0.042370  -0.046841
     2  H    0.001011  -0.046074   0.004477  -0.001931
     3  H    0.000111  -0.041801  -0.003118   0.004515
     4  C   -0.000152  -0.055544  -0.001813  -0.002075
     5  C    0.000010  -0.000661   0.000243  -0.000289
     6  H   -0.000001   0.000086   0.000006   0.000058
     7  H    0.000015   0.000609  -0.000015   0.000197
     8  H   -0.000000  -0.000109  -0.000005  -0.000050
     9  C   -0.000002  -0.004911   0.001406   0.000760
    10  H   -0.000000  -0.000113  -0.000046   0.000001
    11  C    0.000000   0.000577  -0.000082  -0.000033
    12  H    0.000000   0.000163  -0.000140  -0.000000
    13  H   -0.000002  -0.000737  -0.000475  -0.000010
    14  H    0.000000  -0.000037   0.000037  -0.000000
    15  C   -0.006963   0.003126   0.000051  -0.000094
    16  H    0.000182  -0.000068  -0.000005  -0.000002
    17  H    0.002335   0.000148   0.000007  -0.000010
    18  H    0.000187  -0.000131   0.000007   0.000009
    19  C   -0.038449  -0.050100   0.000438   0.001583
    20  C    0.003528  -0.008144  -0.002693   0.000195
    21  H   -0.000121   0.000367  -0.000076  -0.000014
    22  H    0.000061  -0.002069  -0.001675   0.000058
    23  H   -0.000121   0.000117   0.000113   0.000021
    24  C    0.403391   0.338699  -0.044060  -0.041394
    25  H    0.557389  -0.039113   0.003152  -0.003424
    26  C   -0.039113   4.979544   0.415850   0.413482
    27  H    0.003152   0.415850   0.575347  -0.028362
    28  H   -0.003424   0.413482  -0.028362   0.585267
 Mulliken charges:
               1
     1  C   -0.236021
     2  H    0.115272
     3  H    0.125346
     4  C    0.018322
     5  C   -0.341505
     6  H    0.117844
     7  H    0.114461
     8  H    0.117792
     9  C   -0.154256
    10  H    0.115801
    11  C   -0.355567
    12  H    0.119588
    13  H    0.116140
    14  H    0.120830
    15  C   -0.342631
    16  H    0.115672
    17  H    0.119222
    18  H    0.116356
    19  C    0.027222
    20  C   -0.350727
    21  H    0.119352
    22  H    0.120474
    23  H    0.121058
    24  C   -0.163543
    25  H    0.116803
    26  C   -0.235486
    27  H    0.123802
    28  H    0.118380
 Sum of Mulliken charges =  -0.00000
 Mulliken charges with hydrogens summed into heavy atoms:
               1
     1  C    0.004596
     4  C    0.018322
     5  C    0.008593
     9  C   -0.038454
    11  C    0.000991
    15  C    0.008618
    19  C    0.027222
    20  C    0.010156
    24  C   -0.046740
    26  C    0.006696
 Electronic spatial extent (au):  <R**2>=           2384.0056
 Charge=             -0.0000 electrons
 Dipole moment (field-independent basis, Debye):
    X=             -0.3027    Y=              0.1253    Z=              0.0460  Tot=              0.3308
 Quadrupole moment (field-independent basis, Debye-Ang):
   XX=            -64.3024   YY=            -63.2901   ZZ=            -67.3956
   XY=             -0.7521   XZ=             -1.2367   YZ=             -0.3487
 Traceless Quadrupole moment (field-independent basis, Debye-Ang):
   XX=              0.6937   YY=              1.7059   ZZ=             -2.3996
   XY=             -0.7521   XZ=             -1.2367   YZ=             -0.3487
 Octapole moment (field-independent basis, Debye-Ang**2):
  XXX=             -2.6682  YYY=             -2.9989  ZZZ=              0.8999  XYY=              0.6415
  XXY=              4.0909  XXZ=             -2.0918  XZZ=             -1.2120  YZZ=              1.4955
  YYZ=              0.6111  XYZ=              0.3641
 Hexadecapole moment (field-independent basis, Debye-Ang**3):
 XXXX=          -2435.7153 YYYY=           -693.4927 ZZZZ=           -166.6417 XXXY=             -2.3046
 XXXZ=            -14.7514 YYYX=             11.0526 YYYZ=             -1.4214 ZZZX=             -2.8119
 ZZZY=             -0.6411 XXYY=           -520.1245 XXZZ=           -449.2339 YYZZ=           -138.3649
 XXYZ=             -4.2785 YYXZ=             -0.5785 ZZXY=             -5.9187
 N-N= 5.190880052606D+02 E-N=-1.942888749088D+03  KE= 3.887471633101D+02
 No NMR shielding tensors so no spin-rotation constants.
 Leave Link  601 at Fri Sep 17 15:10:05 2021, MaxMem=   524288000 cpu:               0.2 elap:               0.4
 (Enter /opt/gaussian/g16_legacy/l9999.exe)
 1\1\GINC-TRUENO93\FOpt\RMP2-FC\6-31G(d,p)\C10H18\JRAMOS\17-Sep-2021\0\
 \#p opt mp2/6-31g(d,p)\\Conformer number 2655. Energy MM = 23.242 kcal
 /mol\\0,1\C,-0.7625459443,-0.740278125,0.4895310324\H,-0.5820225742,-1
 .6228228953,1.1100257049\H,-0.5793088885,-1.0495105073,-0.5406703955\C
 ,-2.1838636805,-0.2750445177,0.6831859945\C,-2.7605892596,-0.505754278
 2,2.0534459048\H,-2.8231150334,-1.5736737149,2.2735904497\H,-2.1287633
 749,-0.0591616011,2.8244375942\H,-3.7583963641,-0.0785427059,2.1450453
 58\C,-2.8944287538,0.3557231276,-0.2703240191\H,-3.9023972279,0.674739
 2896,-0.0197817314\C,-2.4463810235,0.676271685,-1.664039871\H,-2.48584
 48008,1.7523886724,-1.8432627031\H,-1.4285275768,0.3457027092,-1.85816
 25737\H,-3.0997323414,0.207411874,-2.4023244401\C,3.8971020505,-0.6084
 886273,-0.2245326683\H,4.041290226,-1.3215997493,-1.0393274766\H,4.082
 6551564,-1.1232088743,0.716951076\H,4.6558789689,0.1679768157,-0.34558
 40276\C,2.515131443,-0.017113005,-0.2679061324\C,2.1839194015,0.714729
 4517,-1.5389564571\H,2.3015302551,0.0496506214,-2.3972532594\H,1.16871
 75671,1.1032110176,-1.5527804209\H,2.8713115156,1.549993636,-1.6906233
 465\C,1.6721816831,-0.1517285809,0.7732855655\H,2.0214344319,-0.723944
 2176,1.6291036341\C,0.2611668157,0.3493542462,0.8618177507\H,0.1018773
 138,1.2123492715,0.2141292172\H,0.061720015,0.6913689819,1.8808802406\
 \Version=EM64L-G16RevA.03\State=1-A\HF=-389.1567534\MP2=-390.5738646\R
 MSD=5.146e-09\RMSF=3.238e-06\Dipole=0.0833901,0.0106215,-0.0803044\PG=
 C01 [X(C10H18)]\\@


 I FIND THAT THE THREE TRULY GREAT TIMES FOR THINKING THOUGHTS
 ARE WHEN I AM STANDING IN THE SHOWER, SITTING ON THE JOHN, OR WALKING.

                                    -- COLIN FLETCHER
 Job cpu time:       0 days  0 hours 47 minutes 30.6 seconds.
 Elapsed time:       0 days  0 hours 47 minutes 32.7 seconds.
 File lengths (MBytes):  RWF=     32 Int=      0 D2E=      0 Chk=      7 Scr=      1
 Normal termination of Gaussian 16 at Fri Sep 17 15:10:05 2021.
