 Entering Gaussian System, Link 0=/opt/gaussian/g16_legacy/g16
 Input=01-IsoP_2954_gaussian.com
 Output=01-IsoP_2954_gaussian.log
 Initial command:
 /opt/gaussian/g16_legacy/l1.exe "/scratch-local/jramos/2661385/Gau-2067.inp" -scrdir="/scratch-local/jramos/2661385/"
 Entering Link 1 = /opt/gaussian/g16_legacy/l1.exe PID=      2070.
  
 Copyright (c) 1988,1990,1992,1993,1995,1998,2003,2009,2016,
            Gaussian, Inc.  All Rights Reserved.
  
 This is part of the Gaussian(R) 16 program.  It is based on
 the Gaussian(R) 09 system (copyright 2009, Gaussian, Inc.),
 the Gaussian(R) 03 system (copyright 2003, Gaussian, Inc.),
 the Gaussian(R) 98 system (copyright 1998, Gaussian, Inc.),
 the Gaussian(R) 94 system (copyright 1995, Gaussian, Inc.),
 the Gaussian 92(TM) system (copyright 1992, Gaussian, Inc.),
 the Gaussian 90(TM) system (copyright 1990, Gaussian, Inc.),
 the Gaussian 88(TM) system (copyright 1988, Gaussian, Inc.),
 the Gaussian 86(TM) system (copyright 1986, Carnegie Mellon
 University), and the Gaussian 82(TM) system (copyright 1983,
 Carnegie Mellon University). Gaussian is a federally registered
 trademark of Gaussian, Inc.
  
 This software contains proprietary and confidential information,
 including trade secrets, belonging to Gaussian, Inc.
  
 This software is provided under written license and may be
 used, copied, transmitted, or stored only in accord with that
 written license.
  
 The following legend is applicable only to US Government
 contracts under FAR:
  
                    RESTRICTED RIGHTS LEGEND
  
 Use, reproduction and disclosure by the US Government is
 subject to restrictions as set forth in subparagraphs (a)
 and (c) of the Commercial Computer Software - Restricted
 Rights clause in FAR 52.227-19.
  
 Gaussian, Inc.
 340 Quinnipiac St., Bldg. 40, Wallingford CT 06492
  
  
 ---------------------------------------------------------------
 Warning -- This program may not be used in any manner that
 competes with the business of Gaussian, Inc. or will provide
 assistance to any competitor of Gaussian, Inc.  The licensee
 of this program is prohibited from giving any competitor of
 Gaussian, Inc. access to this program.  By using this program,
 the user acknowledges that Gaussian, Inc. is engaged in the
 business of creating and licensing software in the field of
 computational chemistry and represents and warrants to the
 licensee that it is not a competitor of Gaussian, Inc. and that
 it will not use this program in any manner prohibited above.
 ---------------------------------------------------------------
  

 Cite this work as:
 Gaussian 16, Revision A.03,
 M. J. Frisch, G. W. Trucks, H. B. Schlegel, G. E. Scuseria, 
 M. A. Robb, J. R. Cheeseman, G. Scalmani, V. Barone, 
 G. A. Petersson, H. Nakatsuji, X. Li, M. Caricato, A. V. Marenich, 
 J. Bloino, B. G. Janesko, R. Gomperts, B. Mennucci, H. P. Hratchian, 
 J. V. Ortiz, A. F. Izmaylov, J. L. Sonnenberg, D. Williams-Young, 
 F. Ding, F. Lipparini, F. Egidi, J. Goings, B. Peng, A. Petrone, 
 T. Henderson, D. Ranasinghe, V. G. Zakrzewski, J. Gao, N. Rega, 
 G. Zheng, W. Liang, M. Hada, M. Ehara, K. Toyota, R. Fukuda, 
 J. Hasegawa, M. Ishida, T. Nakajima, Y. Honda, O. Kitao, H. Nakai, 
 T. Vreven, K. Throssell, J. A. Montgomery, Jr., J. E. Peralta, 
 F. Ogliaro, M. J. Bearpark, J. J. Heyd, E. N. Brothers, K. N. Kudin, 
 V. N. Staroverov, T. A. Keith, R. Kobayashi, J. Normand, 
 K. Raghavachari, A. P. Rendell, J. C. Burant, S. S. Iyengar, 
 J. Tomasi, M. Cossi, J. M. Millam, M. Klene, C. Adamo, R. Cammi, 
 J. W. Ochterski, R. L. Martin, K. Morokuma, O. Farkas, 
 J. B. Foresman, and D. J. Fox, Gaussian, Inc., Wallingford CT, 2016.
 
 ******************************************
 Gaussian 16:  EM64L-G16RevA.03 25-Dec-2016
                17-Sep-2021 
 ******************************************
 %chk=01-IsoP_2954_gaussian.chk
 %nproc=1
 Will use up to    1 processors via shared memory.
 %mem=4000Mb
 ---------------------
 #p opt mp2/6-31g(d,p)
 ---------------------
 1/18=20,19=15,38=1/1,3;
 2/9=110,12=2,17=6,18=5,40=1/2;
 3/5=1,6=6,7=101,11=9,25=1,30=1,71=1/1,2,3;
 4//1;
 5/5=2,38=5/2;
 8/6=4,10=2/1;
 9/15=2,16=-3/6;
 10/5=1/2;
 6/7=2,8=2,9=2,10=2/1;
 7/12=2/1,2,3,16;
 1/18=20,19=15/3(2);
 2/9=110/2;
 99//99;
 2/9=110/2;
 3/5=1,6=6,7=101,11=9,25=1,30=1,71=1/1,2,3;
 4/5=5,16=3,69=1/1;
 5/5=2,38=5/2;
 8/6=4,10=2/1;
 9/15=2,16=-3/6;
 10/5=1/2;
 7/12=2/1,2,3,16;
 1/18=20,19=15/3(-8);
 2/9=110/2;
 6/7=2,8=2,9=2,10=2/1;
 99//99;
 Leave Link    1 at Fri Sep 17 14:54:02 2021, MaxMem=   524288000 cpu:               0.0 elap:               0.2
 (Enter /opt/gaussian/g16_legacy/l101.exe)
 --------------------------------------------------
 Conformer number 2954. Energy MM = 23.242 kcal/mol
 --------------------------------------------------
 Symbolic Z-matrix:
 Charge =  0 Multiplicity = 1
 C                     0.7703   -0.7772   -0.4858 
 H                     0.6432   -1.7525   -0.9746 
 H                     0.7362   -0.9947    0.5884 
 C                     2.1187   -0.2042   -0.8708 
 C                     2.5494   -0.482    -2.2882 
 H                     2.6086   -1.5613   -2.4623 
 H                     3.5329   -0.0562   -2.5138 
 H                     1.8338   -0.0532   -2.9967 
 C                     2.9183    0.4874   -0.0348 
 H                     3.8814    0.8377   -0.4052 
 C                     2.6379    0.8713    1.3837 
 H                     1.6151    0.655     1.6997 
 H                     3.3258    0.3465    2.0535 
 H                     2.7962    1.9475    1.508 
 C                    -3.8242   -0.7771    0.7772 
 H                    -3.8336   -1.2995    1.7394 
 H                    -4.0485   -1.5126   -0.0026 
 H                    -4.6295   -0.0352    0.7753 
 C                    -2.4945   -0.1024    0.5621 
 C                    -2.146     0.924     1.6046 
 H                    -1.1276    1.3081    1.5125 
 H                    -2.8341    1.7731    1.5414 
 H                    -2.2297    0.4865    2.6053 
 C                    -1.716    -0.4367   -0.4856 
 H                    -2.0674   -1.2116   -1.1671 
 C                    -0.3848    0.1544   -0.8665 
 H                    -0.2407    1.1427   -0.4176 
 H                    -0.3912    0.3223   -1.9509 
 
 ITRead=  0  0  0  0  0  0  0  0  0  0  0  0  0  0  0  0  0  0  0  0
 ITRead=  0  0  0  0  0  0  0  0
 MicOpt= -1 -1 -1 -1 -1 -1 -1 -1 -1 -1 -1 -1 -1 -1 -1 -1 -1 -1 -1 -1
 MicOpt= -1 -1 -1 -1 -1 -1 -1 -1
 NAtoms=     28 NQM=       28 NQMF=       0 NMMI=      0 NMMIF=      0
                NMic=       0 NMicF=      0.
                    Isotopes and Nuclear Properties:
 (Nuclear quadrupole moments (NQMom) in fm**2, nuclear magnetic moments (NMagM)
  in nuclear magnetons)

  Atom         1           2           3           4           5           6           7           8           9          10
 IAtWgt=          12           1           1          12          12           1           1           1          12           1
 AtmWgt=  12.0000000   1.0078250   1.0078250  12.0000000  12.0000000   1.0078250   1.0078250   1.0078250  12.0000000   1.0078250
 NucSpn=           0           1           1           0           0           1           1           1           0           1
 AtZEff=  -0.0000000  -0.0000000  -0.0000000  -0.0000000  -0.0000000  -0.0000000  -0.0000000  -0.0000000  -0.0000000  -0.0000000
 NQMom=    0.0000000   0.0000000   0.0000000   0.0000000   0.0000000   0.0000000   0.0000000   0.0000000   0.0000000   0.0000000
 NMagM=    0.0000000   2.7928460   2.7928460   0.0000000   0.0000000   2.7928460   2.7928460   2.7928460   0.0000000   2.7928460
 AtZNuc=   6.0000000   1.0000000   1.0000000   6.0000000   6.0000000   1.0000000   1.0000000   1.0000000   6.0000000   1.0000000

  Atom        11          12          13          14          15          16          17          18          19          20
 IAtWgt=          12           1           1           1          12           1           1           1          12          12
 AtmWgt=  12.0000000   1.0078250   1.0078250   1.0078250  12.0000000   1.0078250   1.0078250   1.0078250  12.0000000  12.0000000
 NucSpn=           0           1           1           1           0           1           1           1           0           0
 AtZEff=  -0.0000000  -0.0000000  -0.0000000  -0.0000000  -0.0000000  -0.0000000  -0.0000000  -0.0000000  -0.0000000  -0.0000000
 NQMom=    0.0000000   0.0000000   0.0000000   0.0000000   0.0000000   0.0000000   0.0000000   0.0000000   0.0000000   0.0000000
 NMagM=    0.0000000   2.7928460   2.7928460   2.7928460   0.0000000   2.7928460   2.7928460   2.7928460   0.0000000   0.0000000
 AtZNuc=   6.0000000   1.0000000   1.0000000   1.0000000   6.0000000   1.0000000   1.0000000   1.0000000   6.0000000   6.0000000

  Atom        21          22          23          24          25          26          27          28
 IAtWgt=           1           1           1          12           1          12           1           1
 AtmWgt=   1.0078250   1.0078250   1.0078250  12.0000000   1.0078250  12.0000000   1.0078250   1.0078250
 NucSpn=           1           1           1           0           1           0           1           1
 AtZEff=  -0.0000000  -0.0000000  -0.0000000  -0.0000000  -0.0000000  -0.0000000  -0.0000000  -0.0000000
 NQMom=    0.0000000   0.0000000   0.0000000   0.0000000   0.0000000   0.0000000   0.0000000   0.0000000
 NMagM=    2.7928460   2.7928460   2.7928460   0.0000000   2.7928460   0.0000000   2.7928460   2.7928460
 AtZNuc=   1.0000000   1.0000000   1.0000000   6.0000000   1.0000000   6.0000000   1.0000000   1.0000000
 Leave Link  101 at Fri Sep 17 14:54:02 2021, MaxMem=   524288000 cpu:               0.3 elap:               0.5
 (Enter /opt/gaussian/g16_legacy/l103.exe)

 GradGradGradGradGradGradGradGradGradGradGradGradGradGradGradGradGradGrad
 Berny optimization.
 Initialization pass.
                           ----------------------------
                           !    Initial Parameters    !
                           ! (Angstroms and Degrees)  !
 --------------------------                            --------------------------
 ! Name  Definition              Value          Derivative Info.                !
 --------------------------------------------------------------------------------
 ! R1    R(1,2)                  1.0983         estimate D2E/DX2                !
 ! R2    R(1,3)                  1.0965         estimate D2E/DX2                !
 ! R3    R(1,4)                  1.5148         estimate D2E/DX2                !
 ! R4    R(1,26)                 1.532          estimate D2E/DX2                !
 ! R5    R(4,5)                  1.5072         estimate D2E/DX2                !
 ! R6    R(4,9)                  1.3478         estimate D2E/DX2                !
 ! R7    R(5,6)                  1.0949         estimate D2E/DX2                !
 ! R8    R(5,7)                  1.0952         estimate D2E/DX2                !
 ! R9    R(5,8)                  1.0945         estimate D2E/DX2                !
 ! R10   R(9,10)                 1.0897         estimate D2E/DX2                !
 ! R11   R(9,11)                 1.496          estimate D2E/DX2                !
 ! R12   R(11,12)                1.0921         estimate D2E/DX2                !
 ! R13   R(11,13)                1.0942         estimate D2E/DX2                !
 ! R14   R(11,14)                1.0949         estimate D2E/DX2                !
 ! R15   R(15,16)                1.0949         estimate D2E/DX2                !
 ! R16   R(15,17)                1.0952         estimate D2E/DX2                !
 ! R17   R(15,18)                1.095          estimate D2E/DX2                !
 ! R18   R(15,19)                1.5065         estimate D2E/DX2                !
 ! R19   R(19,20)                1.5039         estimate D2E/DX2                !
 ! R20   R(19,24)                1.3474         estimate D2E/DX2                !
 ! R21   R(20,21)                1.0923         estimate D2E/DX2                !
 ! R22   R(20,22)                1.0947         estimate D2E/DX2                !
 ! R23   R(20,23)                1.0954         estimate D2E/DX2                !
 ! R24   R(24,25)                1.0901         estimate D2E/DX2                !
 ! R25   R(24,26)                1.5055         estimate D2E/DX2                !
 ! R26   R(26,27)                1.095          estimate D2E/DX2                !
 ! R27   R(26,28)                1.0973         estimate D2E/DX2                !
 ! A1    A(2,1,3)              104.8475         estimate D2E/DX2                !
 ! A2    A(2,1,4)              109.0135         estimate D2E/DX2                !
 ! A3    A(2,1,26)             110.0071         estimate D2E/DX2                !
 ! A4    A(3,1,4)              110.5905         estimate D2E/DX2                !
 ! A5    A(3,1,26)             109.9138         estimate D2E/DX2                !
 ! A6    A(4,1,26)             112.2076         estimate D2E/DX2                !
 ! A7    A(1,4,5)              115.0653         estimate D2E/DX2                !
 ! A8    A(1,4,9)              124.3699         estimate D2E/DX2                !
 ! A9    A(5,4,9)              120.5543         estimate D2E/DX2                !
 ! A10   A(4,5,6)              110.2848         estimate D2E/DX2                !
 ! A11   A(4,5,7)              112.2512         estimate D2E/DX2                !
 ! A12   A(4,5,8)              110.4696         estimate D2E/DX2                !
 ! A13   A(6,5,7)              107.5748         estimate D2E/DX2                !
 ! A14   A(6,5,8)              108.58           estimate D2E/DX2                !
 ! A15   A(7,5,8)              107.5459         estimate D2E/DX2                !
 ! A16   A(4,9,10)             118.5843         estimate D2E/DX2                !
 ! A17   A(4,9,11)             127.4884         estimate D2E/DX2                !
 ! A18   A(10,9,11)            113.9193         estimate D2E/DX2                !
 ! A19   A(9,11,12)            113.5188         estimate D2E/DX2                !
 ! A20   A(9,11,13)            109.8467         estimate D2E/DX2                !
 ! A21   A(9,11,14)            109.4378         estimate D2E/DX2                !
 ! A22   A(12,11,13)           108.4612         estimate D2E/DX2                !
 ! A23   A(12,11,14)           107.2915         estimate D2E/DX2                !
 ! A24   A(13,11,14)           108.1228         estimate D2E/DX2                !
 ! A25   A(16,15,17)           107.6713         estimate D2E/DX2                !
 ! A26   A(16,15,18)           108.5715         estimate D2E/DX2                !
 ! A27   A(16,15,19)           110.2875         estimate D2E/DX2                !
 ! A28   A(17,15,18)           107.6487         estimate D2E/DX2                !
 ! A29   A(17,15,19)           112.3266         estimate D2E/DX2                !
 ! A30   A(18,15,19)           110.2091         estimate D2E/DX2                !
 ! A31   A(15,19,20)           114.281          estimate D2E/DX2                !
 ! A32   A(15,19,24)           120.6553         estimate D2E/DX2                !
 ! A33   A(20,19,24)           125.0609         estimate D2E/DX2                !
 ! A34   A(19,20,21)           113.4275         estimate D2E/DX2                !
 ! A35   A(19,20,22)           110.1011         estimate D2E/DX2                !
 ! A36   A(19,20,23)           110.0589         estimate D2E/DX2                !
 ! A37   A(21,20,22)           107.9637         estimate D2E/DX2                !
 ! A38   A(21,20,23)           106.7814         estimate D2E/DX2                !
 ! A39   A(22,20,23)           108.3309         estimate D2E/DX2                !
 ! A40   A(19,24,25)           118.4386         estimate D2E/DX2                !
 ! A41   A(19,24,26)           127.6036         estimate D2E/DX2                !
 ! A42   A(25,24,26)           113.9504         estimate D2E/DX2                !
 ! A43   A(1,26,24)            111.411          estimate D2E/DX2                !
 ! A44   A(1,26,27)            110.3493         estimate D2E/DX2                !
 ! A45   A(1,26,28)            110.0601         estimate D2E/DX2                !
 ! A46   A(24,26,27)           111.5312         estimate D2E/DX2                !
 ! A47   A(24,26,28)           107.7543         estimate D2E/DX2                !
 ! A48   A(27,26,28)           105.5329         estimate D2E/DX2                !
 ! D1    D(2,1,4,5)             36.6435         estimate D2E/DX2                !
 ! D2    D(2,1,4,9)           -142.179          estimate D2E/DX2                !
 ! D3    D(3,1,4,5)            151.4143         estimate D2E/DX2                !
 ! D4    D(3,1,4,9)            -27.4082         estimate D2E/DX2                !
 ! D5    D(26,1,4,5)           -85.467          estimate D2E/DX2                !
 ! D6    D(26,1,4,9)            95.7105         estimate D2E/DX2                !
 ! D7    D(2,1,26,24)           58.0231         estimate D2E/DX2                !
 ! D8    D(2,1,26,27)         -177.5129         estimate D2E/DX2                !
 ! D9    D(2,1,26,28)          -61.4411         estimate D2E/DX2                !
 ! D10   D(3,1,26,24)          -56.9349         estimate D2E/DX2                !
 ! D11   D(3,1,26,27)           67.5291         estimate D2E/DX2                !
 ! D12   D(3,1,26,28)         -176.3991         estimate D2E/DX2                !
 ! D13   D(4,1,26,24)          179.5664         estimate D2E/DX2                !
 ! D14   D(4,1,26,27)          -55.9696         estimate D2E/DX2                !
 ! D15   D(4,1,26,28)           60.1022         estimate D2E/DX2                !
 ! D16   D(1,4,5,6)            -59.5011         estimate D2E/DX2                !
 ! D17   D(1,4,5,7)           -179.4375         estimate D2E/DX2                !
 ! D18   D(1,4,5,8)             60.5359         estimate D2E/DX2                !
 ! D19   D(9,4,5,6)            119.3703         estimate D2E/DX2                !
 ! D20   D(9,4,5,7)             -0.5661         estimate D2E/DX2                !
 ! D21   D(9,4,5,8)           -120.5927         estimate D2E/DX2                !
 ! D22   D(1,4,9,10)           178.6013         estimate D2E/DX2                !
 ! D23   D(1,4,9,11)            -2.4927         estimate D2E/DX2                !
 ! D24   D(5,4,9,10)            -0.1601         estimate D2E/DX2                !
 ! D25   D(5,4,9,11)           178.7459         estimate D2E/DX2                !
 ! D26   D(4,9,11,12)           -7.9221         estimate D2E/DX2                !
 ! D27   D(4,9,11,13)          113.6951         estimate D2E/DX2                !
 ! D28   D(4,9,11,14)         -127.746          estimate D2E/DX2                !
 ! D29   D(10,9,11,12)         171.027          estimate D2E/DX2                !
 ! D30   D(10,9,11,13)         -67.3558         estimate D2E/DX2                !
 ! D31   D(10,9,11,14)          51.2031         estimate D2E/DX2                !
 ! D32   D(16,15,19,20)        -60.2594         estimate D2E/DX2                !
 ! D33   D(16,15,19,24)        119.1573         estimate D2E/DX2                !
 ! D34   D(17,15,19,20)        179.63           estimate D2E/DX2                !
 ! D35   D(17,15,19,24)         -0.9533         estimate D2E/DX2                !
 ! D36   D(18,15,19,20)         59.602          estimate D2E/DX2                !
 ! D37   D(18,15,19,24)       -120.9813         estimate D2E/DX2                !
 ! D38   D(15,19,20,21)        172.3409         estimate D2E/DX2                !
 ! D39   D(15,19,20,22)        -66.5611         estimate D2E/DX2                !
 ! D40   D(15,19,20,23)         52.79           estimate D2E/DX2                !
 ! D41   D(24,19,20,21)         -7.0461         estimate D2E/DX2                !
 ! D42   D(24,19,20,22)        114.0519         estimate D2E/DX2                !
 ! D43   D(24,19,20,23)       -126.597          estimate D2E/DX2                !
 ! D44   D(15,19,24,25)         -0.5205         estimate D2E/DX2                !
 ! D45   D(15,19,24,26)        178.4275         estimate D2E/DX2                !
 ! D46   D(20,19,24,25)        178.83           estimate D2E/DX2                !
 ! D47   D(20,19,24,26)         -2.222          estimate D2E/DX2                !
 ! D48   D(19,24,26,1)         103.3673         estimate D2E/DX2                !
 ! D49   D(19,24,26,27)        -20.4293         estimate D2E/DX2                !
 ! D50   D(19,24,26,28)       -135.8083         estimate D2E/DX2                !
 ! D51   D(25,24,26,1)         -77.6448         estimate D2E/DX2                !
 ! D52   D(25,24,26,27)        158.5585         estimate D2E/DX2                !
 ! D53   D(25,24,26,28)         43.1795         estimate D2E/DX2                !
 --------------------------------------------------------------------------------
 Trust Radius=3.00D-01 FncErr=1.00D-07 GrdErr=1.00D-07 EigMax=2.50D+02 EigMin=1.00D-04
 Number of steps in this run=    138 maximum allowed number of steps=    168.
 GradGradGradGradGradGradGradGradGradGradGradGradGradGradGradGradGradGrad

 Leave Link  103 at Fri Sep 17 14:54:03 2021, MaxMem=   524288000 cpu:               0.1 elap:               0.1
 (Enter /opt/gaussian/g16_legacy/l202.exe)
                          Input orientation:                          
 ---------------------------------------------------------------------
 Center     Atomic      Atomic             Coordinates (Angstroms)
 Number     Number       Type             X           Y           Z
 ---------------------------------------------------------------------
      1          6           0        0.770300   -0.777200   -0.485800
      2          1           0        0.643200   -1.752500   -0.974600
      3          1           0        0.736200   -0.994700    0.588400
      4          6           0        2.118700   -0.204200   -0.870800
      5          6           0        2.549400   -0.482000   -2.288200
      6          1           0        2.608600   -1.561300   -2.462300
      7          1           0        3.532900   -0.056200   -2.513800
      8          1           0        1.833800   -0.053200   -2.996700
      9          6           0        2.918300    0.487400   -0.034800
     10          1           0        3.881400    0.837700   -0.405200
     11          6           0        2.637900    0.871300    1.383700
     12          1           0        1.615100    0.655000    1.699700
     13          1           0        3.325800    0.346500    2.053500
     14          1           0        2.796200    1.947500    1.508000
     15          6           0       -3.824200   -0.777100    0.777200
     16          1           0       -3.833600   -1.299500    1.739400
     17          1           0       -4.048500   -1.512600   -0.002600
     18          1           0       -4.629500   -0.035200    0.775300
     19          6           0       -2.494500   -0.102400    0.562100
     20          6           0       -2.146000    0.924000    1.604600
     21          1           0       -1.127600    1.308100    1.512500
     22          1           0       -2.834100    1.773100    1.541400
     23          1           0       -2.229700    0.486500    2.605300
     24          6           0       -1.716000   -0.436700   -0.485600
     25          1           0       -2.067400   -1.211600   -1.167100
     26          6           0       -0.384800    0.154400   -0.866500
     27          1           0       -0.240700    1.142700   -0.417600
     28          1           0       -0.391200    0.322300   -1.950900
 ---------------------------------------------------------------------
                    Distance matrix (angstroms):
                    1          2          3          4          5
     1  C    0.000000
     2  H    1.098312   0.000000
     3  H    1.096528   1.739505   0.000000
     4  C    1.514839   2.141286   2.159968   0.000000
     5  C    2.549703   2.640703   3.438805   1.507215   0.000000
     6  H    2.810821   2.472368   3.624043   2.148161   1.094853
     7  H    3.502083   3.687402   4.280883   2.172859   1.095205
     8  H    2.821317   2.897246   3.865759   2.150214   1.094498
     9  C    2.533085   3.328131   2.710454   1.347801   2.480652
    10  H    3.506186   4.185605   3.773223   2.099869   2.657352
    11  C    3.114565   4.052744   2.780453   2.551282   3.914346
    12  H    2.746142   3.727268   2.174618   2.756684   4.250768
    13  H    3.773768   4.557580   3.263643   3.211213   4.487713
    14  H    3.937448   4.948607   3.707534   3.278339   4.513814
    15  C    4.764934   4.896720   4.569490   6.193721   7.078597
    16  H    5.140059   5.254783   4.722370   6.591108   7.591611
    17  H    4.898482   4.797331   4.848799   6.363964   7.058214
    18  H    5.594531   5.814863   5.454018   6.948123   7.818009
    19  C    3.494620   3.863863   3.351763   4.831685   5.805965
    20  C    3.970977   4.647102   3.608483   5.058469   6.259194
    21  H    3.455966   4.323040   3.103321   4.301818   5.583020
    22  H    4.858525   5.554433   4.616922   5.853089   6.980930
    23  H    4.489080   5.107089   3.880516   5.609717   6.908265
    24  C    2.509508   2.745228   2.734616   3.861005   4.630881
    25  H    2.950494   2.770737   3.314966   4.315794   4.806664
    26  C    1.532014   2.169041   2.166519   2.529056   3.322012
    27  H    2.170896   3.077939   2.556335   2.754324   3.731414
    28  H    2.168986   2.515540   3.074665   2.782699   3.067213
                    6          7          8          9         10
     6  H    0.000000
     7  H    1.767006   0.000000
     8  H    1.777713   1.766392   0.000000
     9  C    3.191527   2.611259   3.200194   0.000000
    10  H    3.406887   2.316615   3.420854   1.089710   0.000000
    11  C    4.550837   4.105093   4.548536   1.496043   2.178895
    12  H    4.818845   4.683732   4.754529   2.175985   3.098403
    13  H    4.954445   4.589694   5.281131   2.132348   2.568107
    14  H    5.301901   4.553286   5.022085   2.127682   2.463666
    15  C    7.245015   8.091804   6.839541   6.907938   7.961276
    16  H    7.695763   8.596559   7.490216   7.206174   8.287832
    17  H    7.097146   8.118180   6.759877   7.248265   8.280659
    18  H    8.074721   8.800193   7.483485   7.609117   8.636605
    19  C    6.108765   6.767041   5.603718   5.477459   6.517021
    20  C    6.732207   7.083214   6.161630   5.340916   6.354234
    21  H    6.163739   6.308143   5.563804   4.408740   5.384137
    22  H    7.534641   7.767218   6.761584   6.101437   7.054230
    23  H    7.299534   7.727048   6.941593   5.785502   6.821436
    24  C    4.886127   5.639976   4.365063   4.746990   5.741206
    25  H    4.864649   5.874684   4.461915   5.387570   6.337850
    26  C    3.801401   4.255153   3.082699   3.422438   4.345130
    27  H    4.428422   4.480120   3.519302   3.248882   4.133387
    28  H    3.578866   3.982296   2.487031   3.827726   4.572738
                   11         12         13         14         15
    11  C    0.000000
    12  H    1.092136   0.000000
    13  H    1.094191   1.773934   0.000000
    14  H    1.094859   1.761335   1.772356   0.000000
    15  C    6.696551   5.699816   7.349416   7.196333   0.000000
    16  H    6.835145   5.788780   7.352889   7.385852   1.094906
    17  H    7.232755   6.298625   7.878077   7.816913   1.095152
    18  H    7.348945   6.350269   8.066368   7.720684   1.094955
    19  C    5.288161   4.330889   6.025087   5.752245   1.506516
    20  C    4.789287   3.771906   5.520472   5.047992   2.528772
    21  H    3.792937   2.825595   4.588042   3.975558   3.487173
    22  H    5.548053   4.590271   6.343643   5.633099   2.840391
    23  H    5.033280   3.953605   5.584592   5.347734   2.735154
    24  C    4.915444   4.130808   5.699138   5.478941   2.480936
    25  H    5.743248   5.026285   6.471982   6.386758   2.656208
    26  C    3.835891   3.291745   4.725659   4.355711   3.924145
    27  H    3.406564   2.857412   4.411371   3.684888   4.237293
    28  H    4.538326   4.178853   5.463689   4.976423   4.520697
                   16         17         18         19         20
    16  H    0.000000
    17  H    1.768094   0.000000
    18  H    1.778033   1.767880   0.000000
    19  C    2.147620   2.173124   2.146671   0.000000
    20  C    2.794659   3.484195   2.788472   1.503913   0.000000
    21  H    3.764771   4.333997   3.822463   2.182014   1.092316
    22  H    3.237140   3.828123   2.660887   2.142862   1.094736
    23  H    2.551877   3.755739   3.062697   2.142799   1.095359
    24  C    3.190498   2.613696   3.199930   1.347403   2.530877
    25  H    3.402195   2.317632   3.423623   2.098302   3.499898
    26  C    4.560566   4.116784   4.555100   2.560796   3.130566
    27  H    4.850353   4.660706   4.698087   2.754941   2.786986
    28  H    5.300818   4.531950   5.052045   3.304453   4.010355
                   21         22         23         24         25
    21  H    0.000000
    22  H    1.768955   0.000000
    23  H    1.756093   1.775534   0.000000
    24  C    2.717158   3.200327   3.266473   0.000000
    25  H    3.796363   4.102711   4.140155   1.090135   0.000000
    26  C    2.746346   3.797004   3.945547   1.505516   2.188026
    27  H    2.130548   3.310711   3.677587   2.162322   3.072672
    28  H    3.675490   4.502082   4.915893   2.116195   2.403505
                   26         27         28
    26  C    0.000000
    27  H    1.094994   0.000000
    28  H    1.097340   1.745484   0.000000
 Stoichiometry    C10H18
 Framework group  C1[X(C10H18)]
 Deg. of freedom    78
 Full point group                 C1      NOp   1
 Largest Abelian subgroup         C1      NOp   1
 Largest concise Abelian subgroup C1      NOp   1
                         Standard orientation:                         
 ---------------------------------------------------------------------
 Center     Atomic      Atomic             Coordinates (Angstroms)
 Number     Number       Type             X           Y           Z
 ---------------------------------------------------------------------
      1          6           0        0.793805   -0.586455    0.589188
      2          1           0        0.746013   -1.484257    1.220027
      3          1           0        0.484616    0.235299    1.246073
      4          6           0        2.220928   -0.386939    0.122017
      5          6           0        2.975622   -1.655055   -0.184603
      6          1           0        3.025312   -2.291662    0.704760
      7          1           0        4.003240   -1.458162   -0.508188
      8          1           0        2.478689   -2.212201   -0.984960
      9          6           0        2.820219    0.813952   -0.001598
     10          1           0        3.860401    0.846755   -0.324728
     11          6           0        2.215686    2.161845    0.234767
     12          1           0        1.137495    2.131940    0.406152
     13          1           0        2.690885    2.635738    1.098980
     14          1           0        2.388661    2.797210   -0.639938
     15          6           0       -3.965111   -0.407895    0.429692
     16          1           0       -4.236990    0.181287    1.311602
     17          1           0       -4.023647   -1.466042    0.705839
     18          1           0       -4.709092   -0.227462   -0.353163
     19          6           0       -2.593373   -0.018275   -0.056232
     20          6           0       -2.466022    1.425905   -0.456085
     21          1           0       -1.439644    1.725940   -0.678976
     22          1           0       -3.076372    1.626083   -1.342566
     23          1           0       -2.815347    2.072764    0.355923
     24          6           0       -1.596297   -0.923615   -0.097372
     25          1           0       -1.804021   -1.940209    0.236964
     26          6           0       -0.185983   -0.715625   -0.581452
     27          1           0       -0.111250    0.157052   -1.238614
     28          1           0        0.084208   -1.577131   -1.205118
 ---------------------------------------------------------------------
 Rotational constants (GHZ):           2.2181211           0.5802344           0.4854256
 Leave Link  202 at Fri Sep 17 14:54:03 2021, MaxMem=   524288000 cpu:               0.1 elap:               0.2
 (Enter /opt/gaussian/g16_legacy/l301.exe)
 Standard basis: 6-31G(d,p) (6D, 7F)
 Ernie: Thresh=  0.10000D-02 Tol=  0.10000D-05 Strict=F.
 There are   240 symmetry adapted cartesian basis functions of A   symmetry.
 There are   240 symmetry adapted basis functions of A   symmetry.
   240 basis functions,   406 primitive gaussians,   240 cartesian basis functions
    39 alpha electrons       39 beta electrons
       nuclear repulsion energy       516.4368197509 Hartrees.
 IExCor=    0 DFT=F Ex=HF Corr=None ExCW=0 ScaHFX=  1.000000
 ScaDFX=  1.000000  1.000000  1.000000  1.000000 ScalE2=  1.000000  1.000000
 IRadAn=      5 IRanWt=     -1 IRanGd=            0 ICorTp=0 IEmpDi=  4
 NAtoms=   28 NActive=   28 NUniq=   28 SFac= 1.00D+00 NAtFMM=   60 NAOKFM=F Big=F
 Integral buffers will be    131072 words long.
 Raffenetti 1 integral format.
 Two-electron integral symmetry is turned on.
 Leave Link  301 at Fri Sep 17 14:54:03 2021, MaxMem=   524288000 cpu:               0.1 elap:               0.1
 (Enter /opt/gaussian/g16_legacy/l302.exe)
 NPDir=0 NMtPBC=     1 NCelOv=     1 NCel=       1 NClECP=     1 NCelD=      1
         NCelK=      1 NCelE2=     1 NClLst=     1 CellRange=     0.0.
 One-electron integrals computed using PRISM.
 One-electron integral symmetry used in STVInt
 NBasis=   240 RedAO= T EigKep=  2.10D-03  NBF=   240
 NBsUse=   240 1.00D-06 EigRej= -1.00D+00 NBFU=   240
 Leave Link  302 at Fri Sep 17 14:54:04 2021, MaxMem=   524288000 cpu:               0.3 elap:               0.7
 (Enter /opt/gaussian/g16_legacy/l303.exe)
 DipDrv:  MaxL=1.
 Leave Link  303 at Fri Sep 17 14:54:04 2021, MaxMem=   524288000 cpu:               0.1 elap:               0.3
 (Enter /opt/gaussian/g16_legacy/l401.exe)
 ExpMin= 1.61D-01 ExpMax= 3.05D+03 ExpMxC= 4.57D+02 IAcc=3 IRadAn=         5 AccDes= 0.00D+00
 Harris functional with IExCor=  205 and IRadAn=       5 diagonalized for initial guess.
 HarFok:  IExCor=  205 AccDes= 0.00D+00 IRadAn=         5 IDoV= 1 UseB2=F ITyADJ=14
 ICtDFT=  3500011 ScaDFX=  1.000000  1.000000  1.000000  1.000000
 FoFCou: FMM=F IPFlag=           0 FMFlag=      100000 FMFlg1=           0
         NFxFlg=           0 DoJE=T BraDBF=F KetDBF=T FulRan=T
         wScrn=  0.000000 ICntrl=       500 IOpCl=  0 I1Cent=   200000004 NGrid=           0
         NMat0=    1 NMatS0=      1 NMatT0=    0 NMatD0=    1 NMtDS0=    0 NMtDT0=    0
 Petite list used in FoFCou.
 Harris En= -390.109911379705    
 JPrj=0 DoOrth=F DoCkMO=F.
 Leave Link  401 at Fri Sep 17 14:54:17 2021, MaxMem=   524288000 cpu:              12.0 elap:              12.3
 (Enter /opt/gaussian/g16_legacy/l502.exe)
 Keep R1 ints in memory in canonical form, NReq=425198025.
 FoFCou: FMM=F IPFlag=           0 FMFlag=           0 FMFlg1=           0
         NFxFlg=           0 DoJE=F BraDBF=F KetDBF=F FulRan=T
         wScrn=  0.000000 ICntrl=       600 IOpCl=  0 I1Cent=           0 NGrid=           0
         NMat0=    1 NMatS0=  28920 NMatT0=    0 NMatD0=    1 NMtDS0=    0 NMtDT0=    0
 Symmetry not used in FoFCou.
 Two-electron integral symmetry not used.
 Closed shell SCF:
 Using DIIS extrapolation, IDIIS=  1040.
 NGot=   524288000 LenX=   105970886 LenY=   105912845
 Requested convergence on RMS density matrix=1.00D-08 within 128 cycles.
 Requested convergence on MAX density matrix=1.00D-06.
 Requested convergence on             energy=1.00D-06.
 No special actions if energy rises.

 Cycle   1  Pass 1  IDiag  1:
 E= -388.533170283782    
 DIIS: error= 5.21D-02 at cycle   1 NSaved=   1.
 NSaved= 1 IEnMin= 1 EnMin= -388.533170283782     IErMin= 1 ErrMin= 5.21D-02
 ErrMax= 5.21D-02  0.00D+00 EMaxC= 1.00D-01 BMatC= 8.07D-01 BMatP= 8.07D-01
 IDIUse=3 WtCom= 4.79D-01 WtEn= 5.21D-01
 Coeff-Com:  0.100D+01
 Coeff-En:   0.100D+01
 Coeff:      0.100D+01
 Gap=     0.508 Goal=   None    Shift=    0.000
 GapD=    0.508 DampG=2.000 DampE=0.500 DampFc=1.0000 IDamp=-1.
 RMSDP=4.00D-03 MaxDP=1.14D-01              OVMax= 1.33D-01

 Cycle   2  Pass 1  IDiag  1:
 E= -389.073874576033     Delta-E=       -0.540704292251 Rises=F Damp=F
 DIIS: error= 1.59D-02 at cycle   2 NSaved=   2.
 NSaved= 2 IEnMin= 2 EnMin= -389.073874576033     IErMin= 2 ErrMin= 1.59D-02
 ErrMax= 1.59D-02  0.00D+00 EMaxC= 1.00D-01 BMatC= 8.66D-02 BMatP= 8.07D-01
 IDIUse=3 WtCom= 8.41D-01 WtEn= 1.59D-01
 Coeff-Com:  0.183D+00 0.817D+00
 Coeff-En:   0.000D+00 0.100D+01
 Coeff:      0.154D+00 0.846D+00
 Gap=     0.549 Goal=   None    Shift=    0.000
 RMSDP=1.63D-03 MaxDP=3.04D-02 DE=-5.41D-01 OVMax= 4.61D-02

 Cycle   3  Pass 1  IDiag  1:
 E= -389.151435551641     Delta-E=       -0.077560975607 Rises=F Damp=F
 DIIS: error= 3.43D-03 at cycle   3 NSaved=   3.
 NSaved= 3 IEnMin= 3 EnMin= -389.151435551641     IErMin= 3 ErrMin= 3.43D-03
 ErrMax= 3.43D-03  0.00D+00 EMaxC= 1.00D-01 BMatC= 3.14D-03 BMatP= 8.66D-02
 IDIUse=3 WtCom= 9.66D-01 WtEn= 3.43D-02
 Coeff-Com: -0.245D-01 0.106D+00 0.919D+00
 Coeff-En:   0.000D+00 0.000D+00 0.100D+01
 Coeff:     -0.236D-01 0.102D+00 0.921D+00
 Gap=     0.499 Goal=   None    Shift=    0.000
 RMSDP=2.59D-04 MaxDP=7.14D-03 DE=-7.76D-02 OVMax= 1.01D-02

 Cycle   4  Pass 1  IDiag  1:
 E= -389.155061271140     Delta-E=       -0.003625719499 Rises=F Damp=F
 DIIS: error= 5.31D-04 at cycle   4 NSaved=   4.
 NSaved= 4 IEnMin= 4 EnMin= -389.155061271140     IErMin= 4 ErrMin= 5.31D-04
 ErrMax= 5.31D-04  0.00D+00 EMaxC= 1.00D-01 BMatC= 9.29D-05 BMatP= 3.14D-03
 IDIUse=3 WtCom= 9.95D-01 WtEn= 5.31D-03
 Coeff-Com: -0.424D-02-0.189D-02 0.950D-01 0.911D+00
 Coeff-En:   0.000D+00 0.000D+00 0.000D+00 0.100D+01
 Coeff:     -0.422D-02-0.188D-02 0.945D-01 0.912D+00
 Gap=     0.499 Goal=   None    Shift=    0.000
 RMSDP=7.39D-05 MaxDP=1.49D-03 DE=-3.63D-03 OVMax= 3.14D-03

 Cycle   5  Pass 1  IDiag  1:
 E= -389.155185607670     Delta-E=       -0.000124336530 Rises=F Damp=F
 DIIS: error= 1.63D-04 at cycle   5 NSaved=   5.
 NSaved= 5 IEnMin= 5 EnMin= -389.155185607670     IErMin= 5 ErrMin= 1.63D-04
 ErrMax= 1.63D-04  0.00D+00 EMaxC= 1.00D-01 BMatC= 1.60D-05 BMatP= 9.29D-05
 IDIUse=3 WtCom= 9.98D-01 WtEn= 1.63D-03
 Coeff-Com:  0.241D-02-0.152D-01-0.102D+00 0.176D+00 0.939D+00
 Coeff-En:   0.000D+00 0.000D+00 0.000D+00 0.000D+00 0.100D+01
 Coeff:      0.241D-02-0.152D-01-0.102D+00 0.175D+00 0.939D+00
 Gap=     0.500 Goal=   None    Shift=    0.000
 RMSDP=3.00D-05 MaxDP=6.56D-04 DE=-1.24D-04 OVMax= 9.23D-04

 Cycle   6  Pass 1  IDiag  1:
 E= -389.155207090247     Delta-E=       -0.000021482577 Rises=F Damp=F
 DIIS: error= 3.58D-05 at cycle   6 NSaved=   6.
 NSaved= 6 IEnMin= 6 EnMin= -389.155207090247     IErMin= 6 ErrMin= 3.58D-05
 ErrMax= 3.58D-05  0.00D+00 EMaxC= 1.00D-01 BMatC= 5.50D-07 BMatP= 1.60D-05
 IDIUse=1 WtCom= 1.00D+00 WtEn= 0.00D+00
 Coeff-Com:  0.720D-03-0.335D-02-0.261D-01-0.434D-02 0.177D+00 0.856D+00
 Coeff:      0.720D-03-0.335D-02-0.261D-01-0.434D-02 0.177D+00 0.856D+00
 Gap=     0.500 Goal=   None    Shift=    0.000
 RMSDP=5.30D-06 MaxDP=1.61D-04 DE=-2.15D-05 OVMax= 3.23D-04

 Cycle   7  Pass 1  IDiag  1:
 E= -389.155207931323     Delta-E=       -0.000000841076 Rises=F Damp=F
 DIIS: error= 1.03D-05 at cycle   7 NSaved=   7.
 NSaved= 7 IEnMin= 7 EnMin= -389.155207931323     IErMin= 7 ErrMin= 1.03D-05
 ErrMax= 1.03D-05  0.00D+00 EMaxC= 1.00D-01 BMatC= 5.44D-08 BMatP= 5.50D-07
 IDIUse=1 WtCom= 1.00D+00 WtEn= 0.00D+00
 Coeff-Com: -0.494D-04 0.463D-03 0.301D-02-0.105D-01-0.468D-01 0.145D+00
 Coeff-Com:  0.909D+00
 Coeff:     -0.494D-04 0.463D-03 0.301D-02-0.105D-01-0.468D-01 0.145D+00
 Coeff:      0.909D+00
 Gap=     0.500 Goal=   None    Shift=    0.000
 RMSDP=1.71D-06 MaxDP=4.10D-05 DE=-8.41D-07 OVMax= 8.42D-05

 Cycle   8  Pass 1  IDiag  1:
 E= -389.155208020268     Delta-E=       -0.000000088946 Rises=F Damp=F
 DIIS: error= 3.51D-06 at cycle   8 NSaved=   8.
 NSaved= 8 IEnMin= 8 EnMin= -389.155208020268     IErMin= 8 ErrMin= 3.51D-06
 ErrMax= 3.51D-06  0.00D+00 EMaxC= 1.00D-01 BMatC= 5.10D-09 BMatP= 5.44D-08
 IDIUse=1 WtCom= 1.00D+00 WtEn= 0.00D+00
 Coeff-Com: -0.581D-04 0.249D-03 0.208D-02 0.315D-02-0.171D-01-0.804D-01
 Coeff-Com: -0.123D+00 0.121D+01
 Coeff:     -0.581D-04 0.249D-03 0.208D-02 0.315D-02-0.171D-01-0.804D-01
 Coeff:     -0.123D+00 0.121D+01
 Gap=     0.500 Goal=   None    Shift=    0.000
 RMSDP=7.85D-07 MaxDP=2.40D-05 DE=-8.89D-08 OVMax= 5.81D-05

 Cycle   9  Pass 1  IDiag  1:
 E= -389.155208036141     Delta-E=       -0.000000015872 Rises=F Damp=F
 DIIS: error= 1.46D-06 at cycle   9 NSaved=   9.
 NSaved= 9 IEnMin= 9 EnMin= -389.155208036141     IErMin= 9 ErrMin= 1.46D-06
 ErrMax= 1.46D-06  0.00D+00 EMaxC= 1.00D-01 BMatC= 7.39D-10 BMatP= 5.10D-09
 IDIUse=1 WtCom= 1.00D+00 WtEn= 0.00D+00
 Coeff-Com:  0.929D-05-0.690D-04-0.480D-03 0.144D-02 0.385D-02 0.960D-04
 Coeff-Com: -0.865D-01-0.120D+00 0.120D+01
 Coeff:      0.929D-05-0.690D-04-0.480D-03 0.144D-02 0.385D-02 0.960D-04
 Coeff:     -0.865D-01-0.120D+00 0.120D+01
 Gap=     0.500 Goal=   None    Shift=    0.000
 RMSDP=2.99D-07 MaxDP=1.24D-05 DE=-1.59D-08 OVMax= 2.71D-05

 Cycle  10  Pass 1  IDiag  1:
 E= -389.155208038560     Delta-E=       -0.000000002419 Rises=F Damp=F
 DIIS: error= 3.97D-07 at cycle  10 NSaved=  10.
 NSaved=10 IEnMin=10 EnMin= -389.155208038560     IErMin=10 ErrMin= 3.97D-07
 ErrMax= 3.97D-07  0.00D+00 EMaxC= 1.00D-01 BMatC= 1.21D-10 BMatP= 7.39D-10
 IDIUse=1 WtCom= 1.00D+00 WtEn= 0.00D+00
 Coeff-Com:  0.952D-05-0.464D-04-0.369D-03-0.135D-03 0.233D-02 0.142D-01
 Coeff-Com:  0.595D-02-0.211D+00 0.143D+00 0.105D+01
 Coeff:      0.952D-05-0.464D-04-0.369D-03-0.135D-03 0.233D-02 0.142D-01
 Coeff:      0.595D-02-0.211D+00 0.143D+00 0.105D+01
 Gap=     0.500 Goal=   None    Shift=    0.000
 RMSDP=1.24D-07 MaxDP=3.06D-06 DE=-2.42D-09 OVMax= 9.88D-06

 Cycle  11  Pass 1  IDiag  1:
 E= -389.155208038874     Delta-E=       -0.000000000314 Rises=F Damp=F
 DIIS: error= 1.55D-07 at cycle  11 NSaved=  11.
 NSaved=11 IEnMin=11 EnMin= -389.155208038874     IErMin=11 ErrMin= 1.55D-07
 ErrMax= 1.55D-07  0.00D+00 EMaxC= 1.00D-01 BMatC= 9.54D-12 BMatP= 1.21D-10
 IDIUse=1 WtCom= 1.00D+00 WtEn= 0.00D+00
 Coeff-Com:  0.395D-06 0.837D-06 0.998D-06-0.149D-03-0.305D-03 0.278D-02
 Coeff-Com:  0.110D-01-0.153D-01-0.107D+00 0.164D+00 0.945D+00
 Coeff:      0.395D-06 0.837D-06 0.998D-06-0.149D-03-0.305D-03 0.278D-02
 Coeff:      0.110D-01-0.153D-01-0.107D+00 0.164D+00 0.945D+00
 Gap=     0.500 Goal=   None    Shift=    0.000
 RMSDP=2.76D-08 MaxDP=1.16D-06 DE=-3.14D-10 OVMax= 2.51D-06

 Cycle  12  Pass 1  IDiag  1:
 E= -389.155208038891     Delta-E=       -0.000000000017 Rises=F Damp=F
 DIIS: error= 3.64D-08 at cycle  12 NSaved=  12.
 NSaved=12 IEnMin=12 EnMin= -389.155208038891     IErMin=12 ErrMin= 3.64D-08
 ErrMax= 3.64D-08  0.00D+00 EMaxC= 1.00D-01 BMatC= 1.17D-12 BMatP= 9.54D-12
 IDIUse=1 WtCom= 1.00D+00 WtEn= 0.00D+00
 Coeff-Com: -0.102D-05 0.547D-05 0.429D-04 0.324D-05-0.343D-03-0.126D-02
 Coeff-Com:  0.366D-03 0.217D-01-0.321D-01-0.113D+00 0.982D-01 0.103D+01
 Coeff:     -0.102D-05 0.547D-05 0.429D-04 0.324D-05-0.343D-03-0.126D-02
 Coeff:      0.366D-03 0.217D-01-0.321D-01-0.113D+00 0.982D-01 0.103D+01
 Gap=     0.500 Goal=   None    Shift=    0.000
 RMSDP=1.18D-08 MaxDP=3.33D-07 DE=-1.71D-11 OVMax= 8.46D-07

 Cycle  13  Pass 1  IDiag  1:
 E= -389.155208038905     Delta-E=       -0.000000000014 Rises=F Damp=F
 DIIS: error= 1.06D-08 at cycle  13 NSaved=  13.
 NSaved=13 IEnMin=13 EnMin= -389.155208038905     IErMin=13 ErrMin= 1.06D-08
 ErrMax= 1.06D-08  0.00D+00 EMaxC= 1.00D-01 BMatC= 5.47D-14 BMatP= 1.17D-12
 IDIUse=1 WtCom= 1.00D+00 WtEn= 0.00D+00
 Coeff-Com: -0.122D-06 0.462D-06 0.389D-05 0.136D-04-0.170D-04-0.298D-03
 Coeff-Com: -0.849D-03 0.352D-02 0.516D-02-0.212D-01-0.612D-01 0.111D+00
 Coeff-Com:  0.964D+00
 Coeff:     -0.122D-06 0.462D-06 0.389D-05 0.136D-04-0.170D-04-0.298D-03
 Coeff:     -0.849D-03 0.352D-02 0.516D-02-0.212D-01-0.612D-01 0.111D+00
 Coeff:      0.964D+00
 Gap=     0.500 Goal=   None    Shift=    0.000
 RMSDP=2.13D-09 MaxDP=7.02D-08 DE=-1.41D-11 OVMax= 1.05D-07

 SCF Done:  E(RHF) =  -389.155208039     A.U. after   13 cycles
            NFock= 13  Conv=0.21D-08     -V/T= 2.0014
 KE= 3.886262226276D+02 PE=-1.937507706591D+03 EE= 6.432894561734D+02
 Leave Link  502 at Fri Sep 17 14:54:54 2021, MaxMem=   524288000 cpu:              37.3 elap:              37.5
 (Enter /opt/gaussian/g16_legacy/l801.exe)
 ExpMin= 1.61D-01 ExpMax= 3.05D+03 ExpMxC= 4.57D+02 IAcc=3 IRadAn=         5 AccDes= 0.00D+00
 HarFok:  IExCor=  205 AccDes= 0.00D+00 IRadAn=         5 IDoV=-2 UseB2=F ITyADJ=14
 ICtDFT= 12500011 ScaDFX=  1.000000  1.000000  1.000000  1.000000
 Largest valence mixing into a core orbital is  1.98D-04
 Largest core mixing into a valence orbital is  3.52D-05
 Range of M.O.s used for correlation:    11   240
 NBasis=   240 NAE=    39 NBE=    39 NFC=    10 NFV=     0
 NROrb=    230 NOA=    29 NOB=    29 NVA=   201 NVB=   201
 Leave Link  801 at Fri Sep 17 14:54:56 2021, MaxMem=   524288000 cpu:               1.7 elap:               1.7
 (Enter /opt/gaussian/g16_legacy/l906.exe)
 Frozen-core derivative calculation, NFC=  10 NFV=   0.
 FulOut=F Deriv=T AODrv=T NAtomX=    28
   MMem=          88  MDisk=          29 MDiskD=          29
  W3Min=     2246400 MinDsk=     2795480 NBas6D=         240
 NBas2D=       29244    NTT=       28920    LW2=     2040000
    MDV=   523626386 MDiskM=       30186 NBas2p=       24383
 Fully direct method using O(ONN) memory.
 IMap=   1   2   3   4   5   6   7   8   9  10  11  12  13  14  15  16  17  18  19  20
 IMap=  21  22  23  24  25  26  27  28  29  30  31  32  33  34  35  36  37  38  39
 JobTyp=1 Pass  1:  I=  11 to  39 NPSUse=  1 ParTrn=F ParDer=F DoDerP=T.
 Spin components of T(2) and E(2):
     alpha-alpha T2 =       0.5715145539D-01 E2=     -0.1638030262D+00
     alpha-beta  T2 =       0.3618136333D+00 E2=     -0.1089336991D+01
     beta-beta   T2 =       0.5715145539D-01 E2=     -0.1638030262D+00
 The integrals were generated   1 times.
 ANorm=    0.1214955367D+01
 E2 =    -0.1416943043D+01 EUMP2 =    -0.39057215108211D+03
 Leave Link  906 at Fri Sep 17 14:59:09 2021, MaxMem=   524288000 cpu:             252.2 elap:             253.6
 (Enter /opt/gaussian/g16_legacy/l1002.exe)
 Minotr:  Closed shell wavefunction.
          Computing MP2/KS-MP2 derivatives.
          Using Z-Vector for PSCF gradient.
          Skipping F1 and S1 gradient terms here.
          IDoAtm=1111111111111111111111111111
          Frozen-core window.
          Direct CPHF calculation.
          Differentiating once with respect to electric field.
                with respect to dipole field.
          Differentiating once with respect to nuclear coordinates.
          Requested convergence is 1.0D-10 RMS, and 1.0D-09 maximum.
          NewPWx=F KeepS1=T KeepF1=T KeepIn=T MapXYZ=F SortEE=F KeepMc=T.
 Keep R1 ints in memory in canonical form, NReq=425201067.
 FoFCou: FMM=F IPFlag=           0 FMFlag=           0 FMFlg1=           0
         NFxFlg=           0 DoJE=F BraDBF=F KetDBF=F FulRan=T
         wScrn=  0.000000 ICntrl=       600 IOpCl=  0 I1Cent=           0 NGrid=           0
         NMat0=    1 NMatS0=  28920 NMatT0=    0 NMatD0=    1 NMtDS0=    0 NMtDT0=    0
 Symmetry not used in FoFCou.
 Two-electron integral symmetry not used.
          MDV=     524288000 using IRadAn=       5.
          Solving linear equations separately, MaxMat=       0.
          There are     1 degrees of freedom in the 1st order CPHF.  IDoFFX=0 NUNeed=     1.
 LinEq1:  Iter=  0 NonCon=     1 RMS=2.55D-03 Max=3.76D-02 NDo=     1
 AX will form     1 AO Fock derivatives at one time.
 LinEq1:  Iter=  1 NonCon=     1 RMS=6.90D-04 Max=9.74D-03 NDo=     1
 LinEq1:  Iter=  2 NonCon=     1 RMS=1.61D-04 Max=4.14D-03 NDo=     1
 LinEq1:  Iter=  3 NonCon=     1 RMS=4.31D-05 Max=5.08D-04 NDo=     1
 LinEq1:  Iter=  4 NonCon=     1 RMS=1.99D-05 Max=8.55D-04 NDo=     1
 LinEq1:  Iter=  5 NonCon=     1 RMS=5.06D-06 Max=8.26D-05 NDo=     1
 LinEq1:  Iter=  6 NonCon=     1 RMS=1.63D-06 Max=2.68D-05 NDo=     1
 LinEq1:  Iter=  7 NonCon=     1 RMS=4.13D-07 Max=4.18D-06 NDo=     1
 LinEq1:  Iter=  8 NonCon=     1 RMS=1.01D-07 Max=1.86D-06 NDo=     1
 LinEq1:  Iter=  9 NonCon=     1 RMS=2.33D-08 Max=6.32D-07 NDo=     1
 LinEq1:  Iter= 10 NonCon=     1 RMS=6.42D-09 Max=1.62D-07 NDo=     1
 LinEq1:  Iter= 11 NonCon=     1 RMS=1.89D-09 Max=3.63D-08 NDo=     1
 LinEq1:  Iter= 12 NonCon=     1 RMS=4.12D-10 Max=7.05D-09 NDo=     1
 LinEq1:  Iter= 13 NonCon=     1 RMS=1.03D-10 Max=9.07D-10 NDo=     1
 LinEq1:  Iter= 14 NonCon=     1 RMS=3.93D-11 Max=1.37D-09 NDo=     1
 LinEq1:  Iter= 15 NonCon=     0 RMS=1.21D-11 Max=1.71D-10 NDo=     1
 Linear equations converged to 1.000D-10 1.000D-09 after    15 iterations.
 End of Minotr F.D. properties file   721 does not exist.
 End of Minotr F.D. properties file   722 does not exist.
 End of Minotr F.D. properties file   788 does not exist.
 Leave Link 1002 at Fri Sep 17 14:59:46 2021, MaxMem=   524288000 cpu:              35.7 elap:              36.2
 (Enter /opt/gaussian/g16_legacy/l601.exe)
 Copying SCF densities to generalized density rwf, IOpCl= 0 IROHF=0.

 **********************************************************************

            Population analysis using the SCF density.

 **********************************************************************

 Orbital symmetries:
       Occupied  (A) (A) (A) (A) (A) (A) (A) (A) (A) (A) (A) (A)
                 (A) (A) (A) (A) (A) (A) (A) (A) (A) (A) (A) (A)
                 (A) (A) (A) (A) (A) (A) (A) (A) (A) (A) (A) (A)
                 (A) (A) (A)
       Virtual   (A) (A) (A) (A) (A) (A) (A) (A) (A) (A) (A) (A)
                 (A) (A) (A) (A) (A) (A) (A) (A) (A) (A) (A) (A)
                 (A) (A) (A) (A) (A) (A) (A) (A) (A) (A) (A) (A)
                 (A) (A) (A) (A) (A) (A) (A) (A) (A) (A) (A) (A)
                 (A) (A) (A) (A) (A) (A) (A) (A) (A) (A) (A) (A)
                 (A) (A) (A) (A) (A) (A) (A) (A) (A) (A) (A) (A)
                 (A) (A) (A) (A) (A) (A) (A) (A) (A) (A) (A) (A)
                 (A) (A) (A) (A) (A) (A) (A) (A) (A) (A) (A) (A)
                 (A) (A) (A) (A) (A) (A) (A) (A) (A) (A) (A) (A)
                 (A) (A) (A) (A) (A) (A) (A) (A) (A) (A) (A) (A)
                 (A) (A) (A) (A) (A) (A) (A) (A) (A) (A) (A) (A)
                 (A) (A) (A) (A) (A) (A) (A) (A) (A) (A) (A) (A)
                 (A) (A) (A) (A) (A) (A) (A) (A) (A) (A) (A) (A)
                 (A) (A) (A) (A) (A) (A) (A) (A) (A) (A) (A) (A)
                 (A) (A) (A) (A) (A) (A) (A) (A) (A) (A) (A) (A)
                 (A) (A) (A) (A) (A) (A) (A) (A) (A) (A) (A) (A)
                 (A) (A) (A) (A) (A) (A) (A) (A) (A)
 The electronic state is 1-A.
 Alpha  occ. eigenvalues --  -11.23060 -11.22505 -11.21999 -11.21920 -11.21882
 Alpha  occ. eigenvalues --  -11.21650 -11.21554 -11.21484 -11.21456 -11.21438
 Alpha  occ. eigenvalues --   -1.10623  -1.08327  -1.01911  -0.98014  -0.93646
 Alpha  occ. eigenvalues --   -0.91776  -0.86755  -0.82685  -0.70599  -0.69342
 Alpha  occ. eigenvalues --   -0.64585  -0.61544  -0.60102  -0.59031  -0.58088
 Alpha  occ. eigenvalues --   -0.56804  -0.55368  -0.55150  -0.53550  -0.51980
 Alpha  occ. eigenvalues --   -0.51715  -0.51320  -0.50593  -0.49229  -0.48275
 Alpha  occ. eigenvalues --   -0.46014  -0.44273  -0.33356  -0.31525
 Alpha virt. eigenvalues --    0.18456   0.19494   0.22039   0.24454   0.25183
 Alpha virt. eigenvalues --    0.27141   0.28394   0.28932   0.30249   0.30504
 Alpha virt. eigenvalues --    0.31237   0.32117   0.33136   0.33435   0.34032
 Alpha virt. eigenvalues --    0.35678   0.35774   0.36970   0.38998   0.40648
 Alpha virt. eigenvalues --    0.41064   0.42593   0.43321   0.44192   0.45150
 Alpha virt. eigenvalues --    0.51684   0.54046   0.61170   0.62445   0.70139
 Alpha virt. eigenvalues --    0.71101   0.71887   0.74281   0.76417   0.76617
 Alpha virt. eigenvalues --    0.76877   0.78794   0.79454   0.81138   0.82036
 Alpha virt. eigenvalues --    0.83811   0.85656   0.88077   0.91265   0.92025
 Alpha virt. eigenvalues --    0.92897   0.95178   0.97059   0.98263   0.99207
 Alpha virt. eigenvalues --    0.99751   1.00201   1.02301   1.03926   1.06182
 Alpha virt. eigenvalues --    1.07863   1.08639   1.08809   1.11198   1.12391
 Alpha virt. eigenvalues --    1.12560   1.13431   1.14582   1.14927   1.15819
 Alpha virt. eigenvalues --    1.16165   1.16404   1.18225   1.18706   1.20091
 Alpha virt. eigenvalues --    1.20660   1.22068   1.22853   1.25019   1.27542
 Alpha virt. eigenvalues --    1.34173   1.40672   1.41850   1.43738   1.45171
 Alpha virt. eigenvalues --    1.47559   1.53473   1.56257   1.56980   1.58247
 Alpha virt. eigenvalues --    1.59848   1.62721   1.65798   1.69519   1.70792
 Alpha virt. eigenvalues --    1.75332   1.82526   1.92034   1.92195   1.95502
 Alpha virt. eigenvalues --    1.98633   2.01125   2.02849   2.04186   2.08702
 Alpha virt. eigenvalues --    2.09246   2.11122   2.11382   2.13102   2.14505
 Alpha virt. eigenvalues --    2.15427   2.17689   2.19724   2.23578   2.27383
 Alpha virt. eigenvalues --    2.28339   2.29996   2.32202   2.34972   2.35568
 Alpha virt. eigenvalues --    2.35645   2.35782   2.39325   2.39854   2.40350
 Alpha virt. eigenvalues --    2.41281   2.41830   2.43041   2.45164   2.45385
 Alpha virt. eigenvalues --    2.47034   2.48343   2.49333   2.50338   2.54525
 Alpha virt. eigenvalues --    2.56588   2.57722   2.61276   2.62183   2.64353
 Alpha virt. eigenvalues --    2.66343   2.67162   2.72033   2.72995   2.73746
 Alpha virt. eigenvalues --    2.75723   2.77701   2.81094   2.82804   2.85159
 Alpha virt. eigenvalues --    2.87731   2.89153   2.91920   2.93442   2.94437
 Alpha virt. eigenvalues --    2.97091   2.99037   3.01163   3.02602   3.05104
 Alpha virt. eigenvalues --    3.05824   3.06632   3.08507   3.13019   3.15940
 Alpha virt. eigenvalues --    3.17138   3.18163   3.19616   3.20683   3.21266
 Alpha virt. eigenvalues --    3.23192   3.24415   3.26467   3.27247   3.36665
 Alpha virt. eigenvalues --    3.39075   3.44609   3.45623   3.55552   3.57296
 Alpha virt. eigenvalues --    3.58699   3.61061   3.66893   3.73957   3.78205
 Alpha virt. eigenvalues --    3.78872   3.80509   3.81323   3.82335   3.82842
 Alpha virt. eigenvalues --    3.84215   3.85752   3.87654   3.89510   3.91172
 Alpha virt. eigenvalues --    3.95903   4.59095   4.62634   4.74429   4.82817
 Alpha virt. eigenvalues --    4.88837   4.92669   4.93353   5.07550   5.10288
 Alpha virt. eigenvalues --    5.16870
          Condensed to atoms (all electrons):
               1          2          3          4          5          6
     1  C    5.001815   0.413511   0.412355   0.340291  -0.058753  -0.003552
     2  H    0.413511   0.588504  -0.030231  -0.045056  -0.004692   0.002570
     3  H    0.412355  -0.030231   0.571672  -0.040526   0.003238  -0.000016
     4  C    0.340291  -0.045056  -0.040526   4.955080   0.349337  -0.043064
     5  C   -0.058753  -0.004692   0.003238   0.349337   4.896441   0.397386
     6  H   -0.003552   0.002570  -0.000016  -0.043064   0.397386   0.593593
     7  H    0.003677   0.000081  -0.000103  -0.041416   0.406173  -0.027613
     8  H   -0.000533  -0.000276  -0.000030  -0.045809   0.400285  -0.035005
     9  C   -0.044048   0.001918  -0.002231   0.698844  -0.045925  -0.000426
    10  H    0.003079  -0.000114   0.000060  -0.036528  -0.006480   0.000248
    11  C   -0.007063   0.000138  -0.002135  -0.050690   0.003424  -0.000114
    12  H   -0.001827   0.000004  -0.001333  -0.000420   0.000092  -0.000001
    13  H    0.000227   0.000028   0.000172  -0.001412  -0.000116   0.000021
    14  H    0.000232  -0.000010  -0.000034   0.000593  -0.000100  -0.000004
    15  C   -0.000101  -0.000000  -0.000042   0.000002  -0.000000  -0.000000
    16  H    0.000022  -0.000001  -0.000005  -0.000000   0.000000  -0.000000
    17  H   -0.000003   0.000002  -0.000002   0.000000  -0.000000  -0.000000
    18  H   -0.000004   0.000000   0.000001   0.000000  -0.000000   0.000000
    19  C   -0.003608   0.000615   0.001046   0.000006  -0.000002   0.000000
    20  C    0.000597  -0.000016   0.000160  -0.000017  -0.000000  -0.000000
    21  H   -0.000053  -0.000012  -0.000052  -0.000027  -0.000000  -0.000000
    22  H   -0.000041   0.000000   0.000014   0.000001  -0.000000   0.000000
    23  H    0.000077  -0.000001  -0.000076  -0.000002   0.000000  -0.000000
    24  C   -0.063065  -0.000608  -0.000806   0.006130  -0.000158   0.000001
    25  H    0.000004   0.001003   0.000213  -0.000155   0.000010  -0.000002
    26  C    0.326232  -0.044607  -0.039854  -0.057360  -0.000187   0.000027
    27  H   -0.040298   0.004203  -0.002145  -0.001437   0.000317   0.000012
    28  H   -0.045131  -0.002604   0.004290  -0.001850  -0.000392   0.000093
               7          8          9         10         11         12
     1  C    0.003677  -0.000533  -0.044048   0.003079  -0.007063  -0.001827
     2  H    0.000081  -0.000276   0.001918  -0.000114   0.000138   0.000004
     3  H   -0.000103  -0.000030  -0.002231   0.000060  -0.002135  -0.001333
     4  C   -0.041416  -0.045809   0.698844  -0.036528  -0.050690  -0.000420
     5  C    0.406173   0.400285  -0.045925  -0.006480   0.003424   0.000092
     6  H   -0.027613  -0.035005  -0.000426   0.000248  -0.000114  -0.000001
     7  H    0.571067  -0.028077  -0.002739   0.002222   0.000137   0.000004
     8  H   -0.028077   0.594745  -0.001033   0.000123  -0.000100   0.000000
     9  C   -0.002739  -0.001033   4.939953   0.404867   0.337725  -0.041938
    10  H    0.002222   0.000123   0.404867   0.559357  -0.043635   0.003315
    11  C    0.000137  -0.000100   0.337725  -0.043635   4.906206   0.408032
    12  H    0.000004   0.000000  -0.041938   0.003315   0.408032   0.573859
    13  H   -0.000004  -0.000005  -0.044364  -0.000222   0.400027  -0.026846
    14  H   -0.000009   0.000015  -0.042840  -0.002647   0.403006  -0.030025
    15  C    0.000000  -0.000000  -0.000000   0.000000  -0.000000   0.000000
    16  H   -0.000000   0.000000  -0.000000  -0.000000   0.000000  -0.000000
    17  H    0.000000  -0.000000  -0.000000   0.000000   0.000000  -0.000000
    18  H    0.000000   0.000000   0.000000   0.000000  -0.000000  -0.000000
    19  C    0.000000   0.000000   0.000001   0.000000   0.000007  -0.000013
    20  C   -0.000000  -0.000000   0.000010  -0.000000  -0.000097   0.000010
    21  H    0.000000   0.000000  -0.000032   0.000000   0.000040   0.000570
    22  H    0.000000   0.000000   0.000000   0.000000   0.000002  -0.000006
    23  H   -0.000000   0.000000   0.000000  -0.000000  -0.000003   0.000034
    24  C    0.000003  -0.000086   0.000070   0.000002  -0.000032   0.000003
    25  H   -0.000000   0.000012  -0.000002  -0.000000   0.000000  -0.000001
    26  C   -0.000097   0.000810  -0.004366  -0.000116   0.000690  -0.000212
    27  H   -0.000010  -0.000009   0.001215  -0.000044   0.000070  -0.000251
    28  H   -0.000025  -0.000187   0.000514   0.000004  -0.000030  -0.000008
              13         14         15         16         17         18
     1  C    0.000227   0.000232  -0.000101   0.000022  -0.000003  -0.000004
     2  H    0.000028  -0.000010  -0.000000  -0.000001   0.000002   0.000000
     3  H    0.000172  -0.000034  -0.000042  -0.000005  -0.000002   0.000001
     4  C   -0.001412   0.000593   0.000002  -0.000000   0.000000   0.000000
     5  C   -0.000116  -0.000100  -0.000000   0.000000  -0.000000  -0.000000
     6  H    0.000021  -0.000004  -0.000000  -0.000000  -0.000000   0.000000
     7  H   -0.000004  -0.000009   0.000000  -0.000000   0.000000   0.000000
     8  H   -0.000005   0.000015  -0.000000   0.000000  -0.000000   0.000000
     9  C   -0.044364  -0.042840  -0.000000  -0.000000  -0.000000   0.000000
    10  H   -0.000222  -0.002647   0.000000  -0.000000   0.000000   0.000000
    11  C    0.400027   0.403006  -0.000000   0.000000   0.000000  -0.000000
    12  H   -0.026846  -0.030025   0.000000  -0.000000  -0.000000  -0.000000
    13  H    0.584258  -0.033280   0.000000  -0.000000  -0.000000   0.000000
    14  H   -0.033280   0.586822  -0.000000   0.000000  -0.000000  -0.000000
    15  C    0.000000  -0.000000   4.903258   0.396991   0.405419   0.399263
    16  H   -0.000000   0.000000   0.396991   0.594283  -0.027366  -0.034896
    17  H   -0.000000  -0.000000   0.405419  -0.027366   0.568060  -0.027563
    18  H    0.000000  -0.000000   0.399263  -0.034896  -0.027563   0.593056
    19  C   -0.000000   0.000000   0.352280  -0.044304  -0.040402  -0.045758
    20  C    0.000002  -0.000004  -0.065393  -0.002140   0.003696  -0.001106
    21  H   -0.000008   0.000042   0.003679  -0.000072  -0.000108  -0.000023
    22  H    0.000000  -0.000000  -0.001685  -0.000371  -0.000079   0.002552
    23  H   -0.000000   0.000000  -0.003430   0.002846   0.000010  -0.000507
    24  C    0.000002  -0.000004  -0.044858  -0.000547  -0.002387  -0.001135
    25  H    0.000000   0.000000  -0.006749   0.000235   0.002177   0.000150
    26  C   -0.000050   0.000091   0.003153  -0.000086   0.000146  -0.000124
    27  H    0.000023  -0.000079   0.000071  -0.000004   0.000006   0.000004
    28  H   -0.000000   0.000000  -0.000102  -0.000002  -0.000011   0.000012
              19         20         21         22         23         24
     1  C   -0.003608   0.000597  -0.000053  -0.000041   0.000077  -0.063065
     2  H    0.000615  -0.000016  -0.000012   0.000000  -0.000001  -0.000608
     3  H    0.001046   0.000160  -0.000052   0.000014  -0.000076  -0.000806
     4  C    0.000006  -0.000017  -0.000027   0.000001  -0.000002   0.006130
     5  C   -0.000002  -0.000000  -0.000000  -0.000000   0.000000  -0.000158
     6  H    0.000000  -0.000000  -0.000000   0.000000  -0.000000   0.000001
     7  H    0.000000  -0.000000   0.000000   0.000000  -0.000000   0.000003
     8  H    0.000000  -0.000000   0.000000   0.000000   0.000000  -0.000086
     9  C    0.000001   0.000010  -0.000032   0.000000   0.000000   0.000070
    10  H    0.000000  -0.000000   0.000000   0.000000  -0.000000   0.000002
    11  C    0.000007  -0.000097   0.000040   0.000002  -0.000003  -0.000032
    12  H   -0.000013   0.000010   0.000570  -0.000006   0.000034   0.000003
    13  H   -0.000000   0.000002  -0.000008   0.000000  -0.000000   0.000002
    14  H    0.000000  -0.000004   0.000042  -0.000000   0.000000  -0.000004
    15  C    0.352280  -0.065393   0.003679  -0.001685  -0.003430  -0.044858
    16  H   -0.044304  -0.002140  -0.000072  -0.000371   0.002846  -0.000547
    17  H   -0.040402   0.003696  -0.000108  -0.000079   0.000010  -0.002387
    18  H   -0.045758  -0.001106  -0.000023   0.002552  -0.000507  -0.001135
    19  C    4.918221   0.348398  -0.037061  -0.043822  -0.043921   0.698185
    20  C    0.348398   4.909228   0.406146   0.398277   0.402451  -0.043319
    21  H   -0.037061   0.406146   0.568214  -0.026283  -0.030014  -0.002870
    22  H   -0.043822   0.398277  -0.026283   0.582516  -0.033096  -0.000842
    23  H   -0.043921   0.402451  -0.030014  -0.033096   0.586170   0.000448
    24  C    0.698185  -0.043319  -0.002870  -0.000842   0.000448   4.961496
    25  H   -0.036138   0.003365   0.000059  -0.000126  -0.000110   0.402013
    26  C   -0.048266  -0.007534  -0.001944   0.000188   0.000286   0.339915
    27  H    0.000823  -0.002066  -0.001170   0.000056  -0.000043  -0.043817
    28  H    0.000914   0.000169   0.000031   0.000032  -0.000012  -0.043346
              25         26         27         28
     1  C    0.000004   0.326232  -0.040298  -0.045131
     2  H    0.001003  -0.044607   0.004203  -0.002604
     3  H    0.000213  -0.039854  -0.002145   0.004290
     4  C   -0.000155  -0.057360  -0.001437  -0.001850
     5  C    0.000010  -0.000187   0.000317  -0.000392
     6  H   -0.000002   0.000027   0.000012   0.000093
     7  H   -0.000000  -0.000097  -0.000010  -0.000025
     8  H    0.000012   0.000810  -0.000009  -0.000187
     9  C   -0.000002  -0.004366   0.001215   0.000514
    10  H   -0.000000  -0.000116  -0.000044   0.000004
    11  C    0.000000   0.000690   0.000070  -0.000030
    12  H   -0.000001  -0.000212  -0.000251  -0.000008
    13  H    0.000000  -0.000050   0.000023  -0.000000
    14  H    0.000000   0.000091  -0.000079   0.000000
    15  C   -0.006749   0.003153   0.000071  -0.000102
    16  H    0.000235  -0.000086  -0.000004  -0.000002
    17  H    0.002177   0.000146   0.000006  -0.000011
    18  H    0.000150  -0.000124   0.000004   0.000012
    19  C   -0.036138  -0.048266   0.000823   0.000914
    20  C    0.003365  -0.007534  -0.002066   0.000169
    21  H    0.000059  -0.001944  -0.001170   0.000031
    22  H   -0.000126   0.000188   0.000056   0.000032
    23  H   -0.000110   0.000286  -0.000043  -0.000012
    24  C    0.402013   0.339915  -0.043817  -0.043346
    25  H    0.558511  -0.041271   0.003230  -0.003485
    26  C   -0.041271   4.982326   0.414873   0.413779
    27  H    0.003230   0.414873   0.571259  -0.029599
    28  H   -0.003485   0.413779  -0.029599   0.588468
 Mulliken charges:
               1
     1  C   -0.234035
     2  H    0.115649
     3  H    0.126400
     4  C    0.015488
     5  C   -0.339896
     6  H    0.115846
     7  H    0.116728
     8  H    0.115158
     9  C   -0.155172
    10  H    0.116507
    11  C   -0.355604
    12  H    0.116958
    13  H    0.121547
    14  H    0.118236
    15  C   -0.341755
    16  H    0.115417
    17  H    0.118403
    18  H    0.116076
    19  C    0.022799
    20  C   -0.350816
    21  H    0.120946
    22  H    0.122712
    23  H    0.118893
    24  C   -0.160388
    25  H    0.117056
    26  C   -0.236441
    27  H    0.124809
    28  H    0.118479
 Sum of Mulliken charges =  -0.00000
 Mulliken charges with hydrogens summed into heavy atoms:
               1
     1  C    0.008014
     4  C    0.015488
     5  C    0.007836
     9  C   -0.038664
    11  C    0.001136
    15  C    0.008142
    19  C    0.022799
    20  C    0.011735
    24  C   -0.043333
    26  C    0.006848
 Electronic spatial extent (au):  <R**2>=           2423.6427
 Charge=              0.0000 electrons
 Dipole moment (field-independent basis, Debye):
    X=             -0.2950    Y=              0.1262    Z=             -0.0060  Tot=              0.3209
 Quadrupole moment (field-independent basis, Debye-Ang):
   XX=            -64.5130   YY=            -63.6026   ZZ=            -67.0539
   XY=             -0.6117   XZ=             -0.8619   YZ=             -0.4853
 Traceless Quadrupole moment (field-independent basis, Debye-Ang):
   XX=              0.5435   YY=              1.4539   ZZ=             -1.9974
   XY=             -0.6117   XZ=             -0.8619   YZ=             -0.4853
 Octapole moment (field-independent basis, Debye-Ang**2):
  XXX=             -1.3687  YYY=             -2.7193  ZZZ=              0.1846  XYY=              0.5702
  XXY=              4.5378  XXZ=             -2.6522  XZZ=             -1.5765  YZZ=              1.2273
  YYZ=              1.3702  XYZ=              0.7509
 Hexadecapole moment (field-independent basis, Debye-Ang**3):
 XXXX=          -2492.3142 YYYY=           -696.1055 ZZZZ=           -174.8213 XXXY=              2.3319
 XXXZ=            -11.9147 YYYX=              9.3457 YYYZ=             -3.0525 ZZZX=              0.8383
 ZZZY=             -0.0647 XXYY=           -530.4662 XXZZ=           -456.3111 YYZZ=           -139.1712
 XXYZ=             -4.2407 YYXZ=             -3.1949 ZZXY=             -4.7026
 N-N= 5.164368197509D+02 E-N=-1.937507706703D+03  KE= 3.886262226276D+02
 No NMR shielding tensors so no spin-rotation constants.
 Leave Link  601 at Fri Sep 17 14:59:46 2021, MaxMem=   524288000 cpu:               0.3 elap:               0.3
 (Enter /opt/gaussian/g16_legacy/l701.exe)
 ... and contract with generalized density number  2.
 Compute integral first derivatives.
 Leave Link  701 at Fri Sep 17 14:59:46 2021, MaxMem=   524288000 cpu:               0.3 elap:               0.3
 (Enter /opt/gaussian/g16_legacy/l702.exe)
 L702 exits ... SP integral derivatives will be done elsewhere.
 Leave Link  702 at Fri Sep 17 14:59:46 2021, MaxMem=   524288000 cpu:               0.1 elap:               0.1
 (Enter /opt/gaussian/g16_legacy/l703.exe)
 Integral derivatives from FoFJK, PRISM(SPDF).
 Compute integral first derivatives, UseDBF=F ICtDFT=           0.
 Calling FoFJK, ICntrl=  10002127 FMM=F ISym2X=0 I1Cent= 0 IOpClX= 0 NMat=1 NMatS=1 NMatT=0.
 FoFJK:  IHMeth= 1 ICntrl=10002127 DoSepK=F KAlg= 0 I1Cent=           0 FoldK=F
 IRaf=         0 NMat=       1 IRICut=       1 DoRegI=T DoRafI=F ISym2E= 0 IDoP0=0 IntGTp=1.
 FoFCou: FMM=F IPFlag=           0 FMFlag=      100000 FMFlg1=         800
         NFxFlg=           0 DoJE=F BraDBF=F KetDBF=F FulRan=T
         wScrn=  0.000000 ICntrl=  10002127 IOpCl=  0 I1Cent=           0 NGrid=           0
         NMat0=    1 NMatS0=      1 NMatT0=    0 NMatD0=    1 NMtDS0=    0 NMtDT0=    0
 Symmetry not used in FoFCou.
 Leave Link  703 at Fri Sep 17 15:00:21 2021, MaxMem=   524288000 cpu:              35.0 elap:              35.1
 (Enter /opt/gaussian/g16_legacy/l716.exe)
 Dipole        =-9.11393240D-02 6.69163079D-02-4.79777280D-03
 ***** Axes restored to original set *****
 -------------------------------------------------------------------
 Center     Atomic                   Forces (Hartrees/Bohr)
 Number     Number              X              Y              Z
 -------------------------------------------------------------------
      1        6           0.008566735   -0.000056052    0.004051151
      2        1          -0.000706802    0.003626938   -0.000847472
      3        1          -0.001505275    0.003496660   -0.002686750
      4        6           0.004639983   -0.004476007   -0.000404482
      5        6           0.002722428    0.001677336   -0.000612634
      6        1          -0.001924762    0.002289384   -0.001532357
      7        1          -0.003465572   -0.000431855    0.002182589
      8        1           0.000920472   -0.003248186   -0.000138655
      9        6          -0.002645394    0.001201160   -0.002456883
     10        1          -0.002620970   -0.001630528   -0.001807910
     11        6          -0.001469518    0.000616467    0.002165293
     12        1           0.002683709   -0.000898696   -0.001707982
     13        1          -0.001632761    0.002768075    0.001248851
     14        1           0.000597178   -0.002948368    0.001728574
     15        6          -0.000126373   -0.002624353   -0.002244210
     16        1          -0.002333367    0.002473134   -0.000928344
     17        1           0.002324752    0.003125476    0.001977417
     18        1           0.000793097   -0.002096768    0.002513415
     19        6           0.000750472   -0.004937844   -0.001828050
     20        6           0.004184983    0.001957375   -0.000304077
     21        1          -0.002763166   -0.001161071   -0.001734670
     22        1           0.000738730   -0.001567159    0.002600330
     23        1          -0.002227553    0.001799773   -0.002253664
     24        6           0.000242920    0.003839040   -0.003556380
     25        1          -0.001314432    0.000666338    0.003086358
     26        6          -0.007778351    0.001397934    0.000196602
     27        1           0.001028493   -0.003754078    0.001104949
     28        1           0.002320343   -0.001104125    0.002188991
 -------------------------------------------------------------------
 Cartesian Forces:  Max     0.008566735 RMS     0.002573203
 Leave Link  716 at Fri Sep 17 15:00:22 2021, MaxMem=   524288000 cpu:               0.1 elap:               0.1
 (Enter /opt/gaussian/g16_legacy/l103.exe)

 GradGradGradGradGradGradGradGradGradGradGradGradGradGradGradGradGradGrad
 Berny optimization.
 FormGI is forming the generalized inverse of G from B-inverse, IUseBI=4.
 Internal  Forces:  Max     0.004876975 RMS     0.001916596
 Search for a local minimum.
 Step number   1 out of a maximum of  138
 All quantities printed in internal units (Hartrees-Bohrs-Radians)
 RMS Force = .19166D-02 SwitMx=.10000D-02 MixMth= 1
 Mixed Optimization -- RFO/linear search
 Second derivative matrix not updated -- first step.
 ITU=  0
     Eigenvalues ---    0.00342   0.00570   0.00671   0.00680   0.00693
     Eigenvalues ---    0.00714   0.00818   0.01219   0.01287   0.01569
     Eigenvalues ---    0.01641   0.02779   0.02785   0.04018   0.04138
     Eigenvalues ---    0.05349   0.05399   0.06978   0.07035   0.07091
     Eigenvalues ---    0.07093   0.07268   0.07300   0.07346   0.07505
     Eigenvalues ---    0.09277   0.09361   0.12767   0.12843   0.15999
     Eigenvalues ---    0.15999   0.16000   0.16000   0.16000   0.16000
     Eigenvalues ---    0.16000   0.16000   0.16000   0.16000   0.16000
     Eigenvalues ---    0.16000   0.16000   0.16000   0.21859   0.21866
     Eigenvalues ---    0.22000   0.22000   0.24994   0.24997   0.24998
     Eigenvalues ---    0.24999   0.29238   0.30869   0.31632   0.31703
     Eigenvalues ---    0.31805   0.31970   0.32796   0.33869   0.33978
     Eigenvalues ---    0.34069   0.34201   0.34218   0.34224   0.34242
     Eigenvalues ---    0.34246   0.34252   0.34257   0.34258   0.34271
     Eigenvalues ---    0.34298   0.34333   0.34546   0.34567   0.34797
     Eigenvalues ---    0.34846   0.55492   0.55578
 RFO step:  Lambda=-2.95962234D-03 EMin= 3.42462973D-03
 Linear search not attempted -- first point.
 Iteration  1 RMS(Cart)=  0.03970311 RMS(Int)=  0.00072366
 Iteration  2 RMS(Cart)=  0.00093500 RMS(Int)=  0.00016627
 Iteration  3 RMS(Cart)=  0.00000043 RMS(Int)=  0.00016627
 ITry= 1 IFail=0 DXMaxC= 1.84D-01 DCOld= 1.00D+10 DXMaxT= 3.00D-01 DXLimC= 3.00D+00 Rises=F
 Variable       Old X    -DE/DX   Delta X   Delta X   Delta X     New X
                                 (Linear)    (Quad)   (Total)
    R1        2.07551  -0.00276   0.00000  -0.00808  -0.00808   2.06743
    R2        2.07214  -0.00328   0.00000  -0.00954  -0.00954   2.06260
    R3        2.86263  -0.00354   0.00000  -0.01135  -0.01135   2.85128
    R4        2.89509   0.00172   0.00000   0.00584   0.00584   2.90093
    R5        2.84822  -0.00046   0.00000  -0.00143  -0.00143   2.84679
    R6        2.54697  -0.00399   0.00000  -0.00715  -0.00715   2.53982
    R7        2.06897  -0.00212   0.00000  -0.00613  -0.00613   2.06285
    R8        2.06964  -0.00373   0.00000  -0.01081  -0.01081   2.05883
    R9        2.06830  -0.00178   0.00000  -0.00516  -0.00516   2.06314
   R10        2.05925  -0.00223   0.00000  -0.00633  -0.00633   2.05292
   R11        2.82711   0.00310   0.00000   0.00938   0.00938   2.83649
   R12        2.06384  -0.00283   0.00000  -0.00812  -0.00812   2.05572
   R13        2.06772  -0.00159   0.00000  -0.00459  -0.00459   2.06313
   R14        2.06898  -0.00262   0.00000  -0.00757  -0.00757   2.06141
   R15        2.06907  -0.00198   0.00000  -0.00572  -0.00572   2.06335
   R16        2.06954  -0.00398   0.00000  -0.01154  -0.01154   2.05800
   R17        2.06917  -0.00201   0.00000  -0.00581  -0.00581   2.06335
   R18        2.84690  -0.00079   0.00000  -0.00246  -0.00246   2.84445
   R19        2.84198  -0.00049   0.00000  -0.00151  -0.00151   2.84048
   R20        2.54622  -0.00324   0.00000  -0.00580  -0.00580   2.54042
   R21        2.06418  -0.00284   0.00000  -0.00815  -0.00815   2.05603
   R22        2.06875  -0.00183   0.00000  -0.00529  -0.00529   2.06346
   R23        2.06993  -0.00261   0.00000  -0.00756  -0.00756   2.06237
   R24        2.06006  -0.00198   0.00000  -0.00564  -0.00564   2.05442
   R25        2.84501  -0.00149   0.00000  -0.00465  -0.00465   2.84036
   R26        2.06924  -0.00280   0.00000  -0.00811  -0.00811   2.06113
   R27        2.07367  -0.00235   0.00000  -0.00684  -0.00684   2.06683
    A1        1.82993   0.00207   0.00000   0.02246   0.02230   1.85223
    A2        1.90264  -0.00069   0.00000  -0.00273  -0.00272   1.89993
    A3        1.91999  -0.00194   0.00000  -0.01718  -0.01721   1.90278
    A4        1.93017   0.00043   0.00000   0.00924   0.00928   1.93945
    A5        1.91836  -0.00278   0.00000  -0.02022  -0.02026   1.89810
    A6        1.95839   0.00283   0.00000   0.00909   0.00913   1.96752
    A7        2.00827   0.00238   0.00000   0.00971   0.00915   2.01741
    A8        2.17066  -0.00488   0.00000  -0.01891  -0.01945   2.15122
    A9        2.10407   0.00251   0.00000   0.01031   0.00973   2.11380
   A10        1.92483   0.00165   0.00000   0.00898   0.00900   1.93383
   A11        1.95915  -0.00261   0.00000  -0.01300  -0.01296   1.94619
   A12        1.92806   0.00228   0.00000   0.01214   0.01217   1.94023
   A13        1.87753   0.00110   0.00000   0.01022   0.01025   1.88778
   A14        1.89508  -0.00308   0.00000  -0.02479  -0.02479   1.87029
   A15        1.87703   0.00055   0.00000   0.00561   0.00565   1.88268
   A16        2.06969  -0.00194   0.00000  -0.01339  -0.01340   2.05628
   A17        2.22509  -0.00187   0.00000  -0.00836  -0.00838   2.21671
   A18        1.98827   0.00382   0.00000   0.02192   0.02190   2.01017
   A19        1.98128  -0.00299   0.00000  -0.01845  -0.01836   1.96292
   A20        1.91719   0.00396   0.00000   0.02335   0.02331   1.94050
   A21        1.91005   0.00237   0.00000   0.01556   0.01551   1.92556
   A22        1.89300  -0.00096   0.00000  -0.00772  -0.00762   1.88538
   A23        1.87259   0.00054   0.00000   0.00502   0.00509   1.87768
   A24        1.88710  -0.00309   0.00000  -0.01883  -0.01901   1.86809
   A25        1.87922   0.00091   0.00000   0.00934   0.00937   1.88859
   A26        1.89493  -0.00313   0.00000  -0.02545  -0.02545   1.86948
   A27        1.92488   0.00221   0.00000   0.01238   0.01241   1.93729
   A28        1.87883   0.00092   0.00000   0.00791   0.00794   1.88677
   A29        1.96047  -0.00275   0.00000  -0.01371  -0.01367   1.94680
   A30        1.92351   0.00173   0.00000   0.00869   0.00872   1.93223
   A31        1.99458   0.00148   0.00000   0.00590   0.00587   2.00045
   A32        2.10583   0.00182   0.00000   0.00724   0.00722   2.11305
   A33        2.18272  -0.00330   0.00000  -0.01302  -0.01304   2.16968
   A34        1.97968  -0.00222   0.00000  -0.01016  -0.01014   1.96955
   A35        1.92163   0.00230   0.00000   0.01166   0.01168   1.93331
   A36        1.92089  -0.00001   0.00000  -0.00098  -0.00096   1.91993
   A37        1.88432   0.00024   0.00000   0.00335   0.00337   1.88770
   A38        1.86369   0.00201   0.00000   0.01699   0.01701   1.88069
   A39        1.89073  -0.00240   0.00000  -0.02164  -0.02163   1.86910
   A40        2.06714  -0.00168   0.00000  -0.01183  -0.01224   2.05491
   A41        2.22710  -0.00224   0.00000  -0.00990  -0.01031   2.21679
   A42        1.98881   0.00394   0.00000   0.02253   0.02211   2.01092
   A43        1.94449   0.00331   0.00000   0.01366   0.01369   1.95818
   A44        1.92596  -0.00263   0.00000  -0.02486  -0.02492   1.90103
   A45        1.92091  -0.00239   0.00000  -0.01479  -0.01498   1.90593
   A46        1.94659  -0.00053   0.00000  -0.00243  -0.00238   1.94421
   A47        1.88067   0.00060   0.00000   0.01702   0.01707   1.89774
   A48        1.84190   0.00155   0.00000   0.01190   0.01164   1.85354
    D1        0.63955  -0.00058   0.00000   0.02163   0.02138   0.66093
    D2       -2.48149  -0.00156   0.00000  -0.04069  -0.04049  -2.52198
    D3        2.64268   0.00174   0.00000   0.05220   0.05198   2.69466
    D4       -0.47836   0.00076   0.00000  -0.01012  -0.00989  -0.48825
[...]
                 (A) (A) (A) (A) (A) (A) (A) (A) (A) (A) (A) (A)
                 (A) (A) (A) (A) (A) (A) (A) (A) (A) (A) (A) (A)
                 (A) (A) (A) (A) (A) (A) (A) (A) (A) (A) (A) (A)
                 (A) (A) (A) (A) (A) (A) (A) (A) (A) (A) (A) (A)
                 (A) (A) (A) (A) (A) (A) (A) (A) (A) (A) (A) (A)
                 (A) (A) (A) (A) (A) (A) (A) (A) (A) (A) (A) (A)
                 (A) (A) (A) (A) (A) (A) (A) (A) (A) (A) (A) (A)
                 (A) (A) (A) (A) (A) (A) (A) (A) (A) (A) (A) (A)
                 (A) (A) (A) (A) (A) (A) (A) (A) (A) (A) (A) (A)
                 (A) (A) (A) (A) (A) (A) (A) (A) (A) (A) (A) (A)
                 (A) (A) (A) (A) (A) (A) (A) (A) (A) (A) (A) (A)
                 (A) (A) (A) (A) (A) (A) (A) (A) (A) (A) (A) (A)
                 (A) (A) (A) (A) (A) (A) (A) (A) (A) (A) (A) (A)
                 (A) (A) (A) (A) (A) (A) (A) (A) (A)
 The electronic state is 1-A.
 Alpha  occ. eigenvalues --  -11.23020 -11.22460 -11.21868 -11.21730 -11.21712
 Alpha  occ. eigenvalues --  -11.21539 -11.21506 -11.21436 -11.21417 -11.21348
 Alpha  occ. eigenvalues --   -1.10821  -1.08492  -1.01823  -0.98143  -0.93838
 Alpha  occ. eigenvalues --   -0.91939  -0.86963  -0.82855  -0.70494  -0.69519
 Alpha  occ. eigenvalues --   -0.64988  -0.61512  -0.60591  -0.58878  -0.58366
 Alpha  occ. eigenvalues --   -0.56774  -0.55298  -0.54966  -0.53295  -0.52261
 Alpha  occ. eigenvalues --   -0.51859  -0.51173  -0.50832  -0.49581  -0.48519
 Alpha  occ. eigenvalues --   -0.46073  -0.44624  -0.33371  -0.31514
 Alpha virt. eigenvalues --    0.18142   0.19779   0.22152   0.24486   0.25192
 Alpha virt. eigenvalues --    0.27439   0.28535   0.28922   0.30318   0.30811
 Alpha virt. eigenvalues --    0.31477   0.32261   0.33202   0.33794   0.34383
 Alpha virt. eigenvalues --    0.35458   0.36114   0.36962   0.39185   0.40602
 Alpha virt. eigenvalues --    0.41328   0.42631   0.43685   0.44253   0.45395
 Alpha virt. eigenvalues --    0.51702   0.54378   0.61070   0.62576   0.70520
 Alpha virt. eigenvalues --    0.71073   0.72196   0.73768   0.76075   0.76177
 Alpha virt. eigenvalues --    0.76620   0.79010   0.79474   0.81070   0.82306
 Alpha virt. eigenvalues --    0.83713   0.85579   0.89117   0.91091   0.91343
 Alpha virt. eigenvalues --    0.92820   0.94745   0.97065   0.98284   0.98818
 Alpha virt. eigenvalues --    0.99710   1.00468   1.01911   1.03844   1.06577
 Alpha virt. eigenvalues --    1.08019   1.08221   1.09393   1.11664   1.12687
 Alpha virt. eigenvalues --    1.13026   1.13870   1.14856   1.15402   1.16045
 Alpha virt. eigenvalues --    1.16257   1.16619   1.18722   1.19116   1.20671
 Alpha virt. eigenvalues --    1.20953   1.23032   1.23885   1.25765   1.28153
 Alpha virt. eigenvalues --    1.34331   1.41723   1.42153   1.44890   1.46395
 Alpha virt. eigenvalues --    1.48456   1.54136   1.55360   1.57256   1.58165
 Alpha virt. eigenvalues --    1.61459   1.63397   1.66485   1.69046   1.69645
 Alpha virt. eigenvalues --    1.73917   1.82243   1.91111   1.93363   1.96231
 Alpha virt. eigenvalues --    1.98688   2.01467   2.02277   2.03942   2.08565
 Alpha virt. eigenvalues --    2.09706   2.10748   2.11744   2.13037   2.14903
 Alpha virt. eigenvalues --    2.15780   2.16940   2.19854   2.23666   2.28347
 Alpha virt. eigenvalues --    2.29590   2.30325   2.33235   2.35347   2.35688
 Alpha virt. eigenvalues --    2.35978   2.36098   2.38923   2.40264   2.41259
 Alpha virt. eigenvalues --    2.42195   2.43169   2.44154   2.45371   2.46084
 Alpha virt. eigenvalues --    2.47201   2.49167   2.49622   2.51174   2.54099
 Alpha virt. eigenvalues --    2.57315   2.58365   2.61888   2.63241   2.64107
 Alpha virt. eigenvalues --    2.67127   2.68175   2.71776   2.73352   2.73474
 Alpha virt. eigenvalues --    2.75815   2.77410   2.80796   2.82634   2.85354
 Alpha virt. eigenvalues --    2.87137   2.89441   2.92178   2.93739   2.94867
 Alpha virt. eigenvalues --    2.97869   2.99094   3.00960   3.02677   3.05807
 Alpha virt. eigenvalues --    3.06402   3.07703   3.09315   3.13762   3.17093
 Alpha virt. eigenvalues --    3.17589   3.19238   3.20046   3.21242   3.22334
 Alpha virt. eigenvalues --    3.24167   3.25050   3.26607   3.27420   3.37866
 Alpha virt. eigenvalues --    3.40355   3.46023   3.46902   3.56200   3.58183
 Alpha virt. eigenvalues --    3.59499   3.62406   3.67928   3.75494   3.78622
 Alpha virt. eigenvalues --    3.80005   3.81570   3.82569   3.83286   3.83898
 Alpha virt. eigenvalues --    3.84750   3.86481   3.87645   3.89820   3.91558
 Alpha virt. eigenvalues --    3.97645   4.59389   4.63170   4.74472   4.82572
 Alpha virt. eigenvalues --    4.88928   4.92582   4.93409   5.07840   5.10766
 Alpha virt. eigenvalues --    5.17766
          Condensed to atoms (all electrons):
               1          2          3          4          5          6
     1  C    5.004768   0.414473   0.411715   0.337355  -0.056085  -0.003698
     2  H    0.414473   0.587507  -0.028296  -0.046308  -0.004587   0.002378
     3  H    0.411715  -0.028296   0.572983  -0.038988   0.003071  -0.000034
     4  C    0.337355  -0.046308  -0.038988   4.952603   0.351934  -0.041506
     5  C   -0.056085  -0.004587   0.003071   0.351934   4.891804   0.397495
     6  H   -0.003698   0.002378  -0.000034  -0.041506   0.397495   0.591921
     7  H    0.003801   0.000106  -0.000108  -0.042765   0.407087  -0.026764
     8  H    0.000011  -0.000489  -0.000005  -0.045679   0.400946  -0.037541
     9  C   -0.047991   0.002531  -0.001860   0.697840  -0.046054  -0.000373
    10  H    0.003272  -0.000118   0.000031  -0.037842  -0.006525   0.000216
    11  C   -0.007749   0.000160  -0.002811  -0.050271   0.003364  -0.000105
    12  H   -0.001745   0.000030  -0.001657  -0.000691   0.000109   0.000002
    13  H    0.000152   0.000017   0.000184  -0.000627  -0.000106   0.000017
    14  H    0.000310  -0.000013  -0.000067  -0.000247  -0.000095  -0.000004
    15  C   -0.000099  -0.000004  -0.000043   0.000001  -0.000000  -0.000000
    16  H    0.000024  -0.000002  -0.000007  -0.000000   0.000000  -0.000000
    17  H   -0.000003   0.000003  -0.000002   0.000000  -0.000000  -0.000000
    18  H   -0.000005   0.000000   0.000002   0.000000  -0.000000   0.000000
    19  C   -0.004325   0.000787   0.001388   0.000041  -0.000003   0.000000
    20  C    0.000587  -0.000015   0.000200  -0.000018  -0.000000   0.000000
    21  H   -0.000302  -0.000016  -0.000131  -0.000011  -0.000000  -0.000000
    22  H   -0.000040   0.000000   0.000022   0.000001  -0.000000   0.000000
    23  H    0.000130  -0.000002  -0.000135  -0.000005   0.000000  -0.000000
    24  C   -0.061827  -0.000900  -0.000504   0.006443  -0.000149   0.000004
    25  H    0.000175   0.001011   0.000111  -0.000152   0.000010  -0.000001
    26  C    0.332330  -0.046074  -0.041801  -0.055544  -0.000661   0.000086
    27  H   -0.042369   0.004477  -0.003118  -0.001813   0.000243   0.000006
    28  H   -0.046841  -0.001931   0.004515  -0.002075  -0.000289   0.000058
               7          8          9         10         11         12
     1  C    0.003801   0.000011  -0.047991   0.003272  -0.007749  -0.001745
     2  H    0.000106  -0.000489   0.002531  -0.000118   0.000160   0.000030
     3  H   -0.000108  -0.000005  -0.001860   0.000031  -0.002811  -0.001657
     4  C   -0.042765  -0.045679   0.697840  -0.037842  -0.050271  -0.000691
     5  C    0.407087   0.400946  -0.046054  -0.006525   0.003364   0.000109
     6  H   -0.026764  -0.037541  -0.000373   0.000216  -0.000105   0.000002
     7  H    0.568858  -0.027466  -0.002890   0.002385   0.000132   0.000005
     8  H   -0.027466   0.596034  -0.001011   0.000135  -0.000101  -0.000003
     9  C   -0.002890  -0.001011   4.938971   0.404494   0.340494  -0.043903
    10  H    0.002385   0.000135   0.404494   0.558671  -0.041279   0.003299
    11  C    0.000132  -0.000101   0.340494  -0.041279   4.900974   0.409079
    12  H    0.000005  -0.000003  -0.043903   0.003299   0.409079   0.577164
    13  H   -0.000006  -0.000004  -0.041523  -0.001122   0.401144  -0.027132
    14  H   -0.000006   0.000017  -0.041805  -0.001264   0.402169  -0.029956
    15  C    0.000000  -0.000000  -0.000000   0.000000  -0.000000   0.000000
    16  H   -0.000000   0.000000   0.000000  -0.000000  -0.000000  -0.000000
    17  H    0.000000  -0.000000  -0.000000   0.000000   0.000000  -0.000000
    18  H    0.000000   0.000000   0.000000   0.000000   0.000000  -0.000000
    19  C    0.000000   0.000000  -0.000001   0.000000   0.000013  -0.000026
    20  C   -0.000000  -0.000000   0.000015  -0.000000  -0.000147  -0.000000
    21  H    0.000000   0.000000  -0.000045   0.000000   0.000074   0.000412
    22  H    0.000000  -0.000000   0.000000   0.000000   0.000003  -0.000008
    23  H   -0.000000   0.000000   0.000000  -0.000000  -0.000009   0.000079
    24  C    0.000004  -0.000111   0.000114   0.000002  -0.000031   0.000026
    25  H   -0.000000   0.000015  -0.000002  -0.000000   0.000000  -0.000002
    26  C   -0.000109   0.000609  -0.004911  -0.000113   0.000577  -0.000737
    27  H   -0.000005  -0.000015   0.001406  -0.000046  -0.000082  -0.000475
    28  H   -0.000050   0.000197   0.000760   0.000001  -0.000033  -0.000010
              13         14         15         16         17         18
     1  C    0.000152   0.000310  -0.000099   0.000024  -0.000003  -0.000005
     2  H    0.000017  -0.000013  -0.000004  -0.000002   0.000003   0.000000
     3  H    0.000184  -0.000067  -0.000043  -0.000007  -0.000002   0.000002
     4  C   -0.000627  -0.000247   0.000001  -0.000000   0.000000   0.000000
     5  C   -0.000106  -0.000095  -0.000000   0.000000  -0.000000  -0.000000
     6  H    0.000017  -0.000004  -0.000000  -0.000000  -0.000000   0.000000
     7  H   -0.000006  -0.000006   0.000000  -0.000000   0.000000   0.000000
     8  H   -0.000004   0.000017  -0.000000   0.000000  -0.000000   0.000000
     9  C   -0.041523  -0.041805  -0.000000   0.000000  -0.000000   0.000000
    10  H   -0.001122  -0.001264   0.000000  -0.000000   0.000000   0.000000
    11  C    0.401144   0.402169  -0.000000  -0.000000   0.000000   0.000000
    12  H   -0.027132  -0.029956   0.000000  -0.000000  -0.000000  -0.000000
    13  H    0.583648  -0.035462   0.000000  -0.000000  -0.000000   0.000000
    14  H   -0.035462   0.586720  -0.000000   0.000000  -0.000000  -0.000000
    15  C    0.000000  -0.000000   4.900112   0.398238   0.406218   0.398811
    16  H   -0.000000   0.000000   0.398238   0.594542  -0.026703  -0.037806
    17  H   -0.000000  -0.000000   0.406218  -0.026703   0.566018  -0.026549
    18  H    0.000000  -0.000000   0.398811  -0.037806  -0.026549   0.593607
    19  C   -0.000000   0.000001   0.353753  -0.043899  -0.041639  -0.044274
    20  C    0.000004  -0.000015  -0.064931  -0.001975   0.003785  -0.001201
    21  H   -0.000013   0.000114   0.003725  -0.000068  -0.000113  -0.000031
    22  H    0.000000  -0.000000  -0.002223  -0.000456  -0.000053   0.002766
    23  H   -0.000000   0.000000  -0.002632   0.002756  -0.000032  -0.000476
    24  C    0.000002  -0.000009  -0.044415  -0.000422  -0.002632  -0.001270
    25  H    0.000000   0.000000  -0.006963   0.000182   0.002335   0.000187
    26  C   -0.000037   0.000163   0.003126  -0.000068   0.000148  -0.000131
    27  H    0.000037  -0.000140   0.000051  -0.000005   0.000007   0.000007
    28  H   -0.000000  -0.000000  -0.000094  -0.000002  -0.000010   0.000009
              19         20         21         22         23         24
     1  C   -0.004325   0.000587  -0.000302  -0.000040   0.000130  -0.061827
     2  H    0.000787  -0.000015  -0.000016   0.000000  -0.000002  -0.000900
     3  H    0.001388   0.000200  -0.000131   0.000022  -0.000135  -0.000504
     4  C    0.000041  -0.000018  -0.000011   0.000001  -0.000005   0.006443
     5  C   -0.000003  -0.000000  -0.000000  -0.000000   0.000000  -0.000149
     6  H    0.000000   0.000000  -0.000000   0.000000  -0.000000   0.000004
     7  H    0.000000  -0.000000   0.000000   0.000000  -0.000000   0.000004
     8  H    0.000000  -0.000000   0.000000  -0.000000   0.000000  -0.000111
     9  C   -0.000001   0.000015  -0.000045   0.000000   0.000000   0.000114
    10  H    0.000000  -0.000000   0.000000   0.000000  -0.000000   0.000002
    11  C    0.000013  -0.000147   0.000074   0.000003  -0.000009  -0.000031
    12  H   -0.000026  -0.000000   0.000412  -0.000008   0.000079   0.000026
    13  H   -0.000000   0.000004  -0.000013   0.000000  -0.000000   0.000002
    14  H    0.000001  -0.000015   0.000114  -0.000000   0.000000  -0.000009
    15  C    0.353753  -0.064931   0.003725  -0.002223  -0.002632  -0.044415
    16  H   -0.043899  -0.001975  -0.000068  -0.000456   0.002756  -0.000422
    17  H   -0.041639   0.003785  -0.000113  -0.000053  -0.000032  -0.002632
    18  H   -0.044274  -0.001201  -0.000031   0.002766  -0.000476  -0.001270
    19  C    4.914192   0.350333  -0.037848  -0.043537  -0.043385   0.697734
    20  C    0.350333   4.907254   0.407154   0.399852   0.401208  -0.044248
    21  H   -0.037848   0.407154   0.568221  -0.026060  -0.028659  -0.003253
    22  H   -0.043537   0.399852  -0.026060   0.584669  -0.035759  -0.000365
    23  H   -0.043385   0.401208  -0.028659  -0.035759   0.587442  -0.000031
    24  C    0.697734  -0.044248  -0.003253  -0.000365  -0.000031   4.962747
    25  H   -0.038449   0.003528   0.000061  -0.000121  -0.000121   0.403391
    26  C   -0.050100  -0.008144  -0.002069   0.000117   0.000367   0.338699
    27  H    0.000438  -0.002693  -0.001675   0.000113  -0.000076  -0.044060
    28  H    0.001583   0.000195   0.000058   0.000021  -0.000014  -0.041394
              25         26         27         28
     1  C    0.000175   0.332330  -0.042369  -0.046841
     2  H    0.001011  -0.046074   0.004477  -0.001931
     3  H    0.000111  -0.041801  -0.003118   0.004515
     4  C   -0.000152  -0.055544  -0.001813  -0.002075
     5  C    0.000010  -0.000661   0.000243  -0.000289
     6  H   -0.000001   0.000086   0.000006   0.000058
     7  H   -0.000000  -0.000109  -0.000005  -0.000050
     8  H    0.000015   0.000609  -0.000015   0.000197
     9  C   -0.000002  -0.004911   0.001406   0.000760
    10  H   -0.000000  -0.000113  -0.000046   0.000001
    11  C    0.000000   0.000577  -0.000082  -0.000033
    12  H   -0.000002  -0.000737  -0.000475  -0.000010
    13  H    0.000000  -0.000037   0.000037  -0.000000
    14  H    0.000000   0.000163  -0.000140  -0.000000
    15  C   -0.006963   0.003126   0.000051  -0.000094
    16  H    0.000182  -0.000068  -0.000005  -0.000002
    17  H    0.002335   0.000148   0.000007  -0.000010
    18  H    0.000187  -0.000131   0.000007   0.000009
    19  C   -0.038449  -0.050100   0.000438   0.001583
    20  C    0.003528  -0.008144  -0.002693   0.000195
    21  H    0.000061  -0.002069  -0.001675   0.000058
    22  H   -0.000121   0.000117   0.000113   0.000021
    23  H   -0.000121   0.000367  -0.000076  -0.000014
    24  C    0.403391   0.338699  -0.044060  -0.041394
    25  H    0.557389  -0.039113   0.003152  -0.003424
    26  C   -0.039113   4.979544   0.415850   0.413482
    27  H    0.003152   0.415850   0.575347  -0.028362
    28  H   -0.003424   0.413482  -0.028362   0.585267
 Mulliken charges:
               1
     1  C   -0.236021
     2  H    0.115272
     3  H    0.125346
     4  C    0.018322
     5  C   -0.341505
     6  H    0.117844
     7  H    0.117792
     8  H    0.114461
     9  C   -0.154256
    10  H    0.115801
    11  C   -0.355567
    12  H    0.116140
    13  H    0.120830
    14  H    0.119588
    15  C   -0.342631
    16  H    0.115672
    17  H    0.119222
    18  H    0.116356
    19  C    0.027222
    20  C   -0.350727
    21  H    0.120474
    22  H    0.121058
    23  H    0.119352
    24  C   -0.163543
    25  H    0.116803
    26  C   -0.235486
    27  H    0.123802
    28  H    0.118380
 Sum of Mulliken charges =  -0.00000
 Mulliken charges with hydrogens summed into heavy atoms:
               1
     1  C    0.004596
     4  C    0.018322
     5  C    0.008593
     9  C   -0.038454
    11  C    0.000991
    15  C    0.008618
    19  C    0.027222
    20  C    0.010156
    24  C   -0.046740
    26  C    0.006696
 Electronic spatial extent (au):  <R**2>=           2384.0063
 Charge=             -0.0000 electrons
 Dipole moment (field-independent basis, Debye):
    X=             -0.3027    Y=              0.1253    Z=              0.0460  Tot=              0.3308
 Quadrupole moment (field-independent basis, Debye-Ang):
   XX=            -64.3024   YY=            -63.2901   ZZ=            -67.3956
   XY=             -0.7521   XZ=             -1.2367   YZ=             -0.3487
 Traceless Quadrupole moment (field-independent basis, Debye-Ang):
   XX=              0.6937   YY=              1.7059   ZZ=             -2.3996
   XY=             -0.7521   XZ=             -1.2367   YZ=             -0.3487
 Octapole moment (field-independent basis, Debye-Ang**2):
  XXX=             -2.6682  YYY=             -2.9989  ZZZ=              0.8999  XYY=              0.6415
  XXY=              4.0909  XXZ=             -2.0918  XZZ=             -1.2120  YZZ=              1.4955
  YYZ=              0.6111  XYZ=              0.3641
 Hexadecapole moment (field-independent basis, Debye-Ang**3):
 XXXX=          -2435.7167 YYYY=           -693.4924 ZZZZ=           -166.6416 XXXY=             -2.3047
 XXXZ=            -14.7514 YYYX=             11.0526 YYYZ=             -1.4214 ZZZX=             -2.8119
 ZZZY=             -0.6411 XXYY=           -520.1247 XXZZ=           -449.2341 YYZZ=           -138.3649
 XXYZ=             -4.2785 YYXZ=             -0.5785 ZZXY=             -5.9188
 N-N= 5.190879825881D+02 E-N=-1.942888704323D+03  KE= 3.887471638940D+02
 No NMR shielding tensors so no spin-rotation constants.
 Leave Link  601 at Fri Sep 17 16:12:34 2021, MaxMem=   524288000 cpu:               0.4 elap:               0.6
 (Enter /opt/gaussian/g16_legacy/l9999.exe)
 1\1\GINC-TRUENO90\FOpt\RMP2-FC\6-31G(d,p)\C10H18\JRAMOS\17-Sep-2021\0\
 \#p opt mp2/6-31g(d,p)\\Conformer number 2954. Energy MM = 23.242 kcal
 /mol\\0,1\C,0.750313158,-0.7590740177,-0.4642429624\H,0.5586413818,-1.
 716245225,-0.9577739036\H,0.6878946511,-0.9512764154,0.6079872666\C,2.
 1171324557,-0.2582497669,-0.8580314429\C,2.5668672938,-0.6248225888,-2
 .2461288008\H,2.6667942056,-1.7075681249,-2.3486067289\H,3.5251980348,
 -0.168158889,-2.4902181377\H,1.8376099629,-0.3013093006,-2.9921851433\
 C,2.8825422566,0.5120692247,-0.06260184\H,3.8412254693,0.8429440893,-0
 .4524627251\C,2.5579559361,0.9761938947,1.324904571\H,1.5844942476,0.6
 267098291,1.661383734\H,3.3065939401,0.6276470434,2.0389198477\H,2.554
 8291352,2.0666786997,1.3752942323\C,-3.8153975248,-0.7479180452,0.7163
 310146\H,-3.8378544797,-1.3646511434,1.6176324223\H,-4.0645070075,-1.3
 786498405,-0.135655145\H,-4.6005931673,0.0033746655,0.8273334698\C,-2.
 4711703973,-0.0954955633,0.5464854202\C,-2.0567452925,0.7962141317,1.6
 840132122\H,-1.0684932712,1.2277632371,1.546655988\H,-2.7712641694,1.6
 12608761,1.8110547517\H,-2.0511642247,0.2334699786,2.6200278002\C,-1.7
 296245564,-0.3159111385,-0.5554639946\H,-2.1296433919,-1.0006677811,-1
 .2990540445\C,-0.3646009114,0.2325281631,-0.8483970551\H,-0.1902309518
 ,1.1726110439,-0.3235415703\H,-0.2868027825,0.4592850789,-1.9150602362
 \\Version=EM64L-G16RevA.03\State=1-A\HF=-389.1567534\MP2=-390.5738646\
 RMSD=5.142e-09\RMSF=3.209e-06\Dipole=-0.0754625,0.0164306,0.0868961\PG
 =C01 [X(C10H18)]\\@


 The arm of the moral universe is long, but it bends toward justice.
 -- Martin Luther King, Jr.
 Job cpu time:       0 days  1 hours 18 minutes 21.8 seconds.
 Elapsed time:       0 days  1 hours 18 minutes 29.8 seconds.
 File lengths (MBytes):  RWF=     32 Int=      0 D2E=      0 Chk=      7 Scr=      1
 Normal termination of Gaussian 16 at Fri Sep 17 16:12:35 2021.
