 Entering Gaussian System, Link 0=/opt/gaussian/g16_legacy/g16
 Input=01-IsoP_094_gaussian.com
 Output=01-IsoP_094_gaussian.log
 Initial command:
 /opt/gaussian/g16_legacy/l1.exe "/scratch-local/jramos/2661319/Gau-8430.inp" -scrdir="/scratch-local/jramos/2661319/"
 Entering Link 1 = /opt/gaussian/g16_legacy/l1.exe PID=      8432.
  
 Copyright (c) 1988,1990,1992,1993,1995,1998,2003,2009,2016,
            Gaussian, Inc.  All Rights Reserved.
  
 This is part of the Gaussian(R) 16 program.  It is based on
 the Gaussian(R) 09 system (copyright 2009, Gaussian, Inc.),
 the Gaussian(R) 03 system (copyright 2003, Gaussian, Inc.),
 the Gaussian(R) 98 system (copyright 1998, Gaussian, Inc.),
 the Gaussian(R) 94 system (copyright 1995, Gaussian, Inc.),
 the Gaussian 92(TM) system (copyright 1992, Gaussian, Inc.),
 the Gaussian 90(TM) system (copyright 1990, Gaussian, Inc.),
 the Gaussian 88(TM) system (copyright 1988, Gaussian, Inc.),
 the Gaussian 86(TM) system (copyright 1986, Carnegie Mellon
 University), and the Gaussian 82(TM) system (copyright 1983,
 Carnegie Mellon University). Gaussian is a federally registered
 trademark of Gaussian, Inc.
  
 This software contains proprietary and confidential information,
 including trade secrets, belonging to Gaussian, Inc.
  
 This software is provided under written license and may be
 used, copied, transmitted, or stored only in accord with that
 written license.
  
 The following legend is applicable only to US Government
 contracts under FAR:
  
                    RESTRICTED RIGHTS LEGEND
  
 Use, reproduction and disclosure by the US Government is
 subject to restrictions as set forth in subparagraphs (a)
 and (c) of the Commercial Computer Software - Restricted
 Rights clause in FAR 52.227-19.
  
 Gaussian, Inc.
 340 Quinnipiac St., Bldg. 40, Wallingford CT 06492
  
  
 ---------------------------------------------------------------
 Warning -- This program may not be used in any manner that
 competes with the business of Gaussian, Inc. or will provide
 assistance to any competitor of Gaussian, Inc.  The licensee
 of this program is prohibited from giving any competitor of
 Gaussian, Inc. access to this program.  By using this program,
 the user acknowledges that Gaussian, Inc. is engaged in the
 business of creating and licensing software in the field of
 computational chemistry and represents and warrants to the
 licensee that it is not a competitor of Gaussian, Inc. and that
 it will not use this program in any manner prohibited above.
 ---------------------------------------------------------------
  

 Cite this work as:
 Gaussian 16, Revision A.03,
 M. J. Frisch, G. W. Trucks, H. B. Schlegel, G. E. Scuseria, 
 M. A. Robb, J. R. Cheeseman, G. Scalmani, V. Barone, 
 G. A. Petersson, H. Nakatsuji, X. Li, M. Caricato, A. V. Marenich, 
 J. Bloino, B. G. Janesko, R. Gomperts, B. Mennucci, H. P. Hratchian, 
 J. V. Ortiz, A. F. Izmaylov, J. L. Sonnenberg, D. Williams-Young, 
 F. Ding, F. Lipparini, F. Egidi, J. Goings, B. Peng, A. Petrone, 
 T. Henderson, D. Ranasinghe, V. G. Zakrzewski, J. Gao, N. Rega, 
 G. Zheng, W. Liang, M. Hada, M. Ehara, K. Toyota, R. Fukuda, 
 J. Hasegawa, M. Ishida, T. Nakajima, Y. Honda, O. Kitao, H. Nakai, 
 T. Vreven, K. Throssell, J. A. Montgomery, Jr., J. E. Peralta, 
 F. Ogliaro, M. J. Bearpark, J. J. Heyd, E. N. Brothers, K. N. Kudin, 
 V. N. Staroverov, T. A. Keith, R. Kobayashi, J. Normand, 
 K. Raghavachari, A. P. Rendell, J. C. Burant, S. S. Iyengar, 
 J. Tomasi, M. Cossi, J. M. Millam, M. Klene, C. Adamo, R. Cammi, 
 J. W. Ochterski, R. L. Martin, K. Morokuma, O. Farkas, 
 J. B. Foresman, and D. J. Fox, Gaussian, Inc., Wallingford CT, 2016.
 
 ******************************************
 Gaussian 16:  EM64L-G16RevA.03 25-Dec-2016
                17-Sep-2021 
 ******************************************
 %chk=01-IsoP_094_gaussian.chk
 %nproc=1
 Will use up to    1 processors via shared memory.
 %mem=4000Mb
 ---------------------
 #p opt mp2/6-31g(d,p)
 ---------------------
 1/18=20,19=15,38=1/1,3;
 2/9=110,12=2,17=6,18=5,40=1/2;
 3/5=1,6=6,7=101,11=9,25=1,30=1,71=1/1,2,3;
 4//1;
 5/5=2,38=5/2;
 8/6=4,10=2/1;
 9/15=2,16=-3/6;
 10/5=1/2;
 6/7=2,8=2,9=2,10=2/1;
 7/12=2/1,2,3,16;
 1/18=20,19=15/3(2);
 2/9=110/2;
 99//99;
 2/9=110/2;
 3/5=1,6=6,7=101,11=9,25=1,30=1,71=1/1,2,3;
 4/5=5,16=3,69=1/1;
 5/5=2,38=5/2;
 8/6=4,10=2/1;
 9/15=2,16=-3/6;
 10/5=1/2;
 7/12=2/1,2,3,16;
 1/18=20,19=15/3(-8);
 2/9=110/2;
 6/7=2,8=2,9=2,10=2/1;
 99//99;
 Leave Link    1 at Fri Sep 17 13:32:33 2021, MaxMem=   524288000 cpu:               0.0 elap:               0.2
 (Enter /opt/gaussian/g16_legacy/l101.exe)
 -------------------------------------------------
 Conformer number 094. Energy MM = 23.242 kcal/mol
 -------------------------------------------------
 Symbolic Z-matrix:
 Charge =  0 Multiplicity = 1
 C                    -0.0019    1.1497    0.2755 
 H                    -0.7085    0.6067    0.9145 
 H                    -0.5517    2.0397   -0.0592 
 C                     1.2088    1.5886    1.0732 
 C                     1.8848    2.839     0.5719 
 H                     1.1835    3.6798    0.5824 
 H                     2.7466    3.1196    1.1867 
 H                     2.2426    2.6963   -0.4525 
 C                     1.6687    0.9538    2.1695 
 H                     2.536     1.3655    2.6851 
 C                     1.138    -0.3029    2.7838 
 H                     0.7147   -0.0849    3.7689 
 H                     1.9566   -1.0179    2.9155 
 H                     0.3722   -0.7938    2.1793 
 C                    -1.0243   -2.5108   -0.875 
 H                    -0.6551   -3.3202   -1.513 
 H                    -1.8822   -2.8849   -0.3058 
 H                    -0.2442   -2.2715   -0.1488 
 C                    -1.4375   -1.3358   -1.7179 
 C                    -2.6331   -1.594    -2.5973 
 H                    -3.5035   -1.8569   -1.9872 
 H                    -2.4259   -2.4213   -3.2839 
 H                    -2.9019   -0.7208   -3.201 
 C                    -0.8336   -0.1313   -1.7157 
 H                    -1.2359    0.6523   -2.3579 
 C                     0.3812    0.2859   -0.9303 
 H                     0.9679   -0.5803   -0.6072 
 H                     1.0378    0.8505   -1.6044 
 
 ITRead=  0  0  0  0  0  0  0  0  0  0  0  0  0  0  0  0  0  0  0  0
 ITRead=  0  0  0  0  0  0  0  0
 MicOpt= -1 -1 -1 -1 -1 -1 -1 -1 -1 -1 -1 -1 -1 -1 -1 -1 -1 -1 -1 -1
 MicOpt= -1 -1 -1 -1 -1 -1 -1 -1
 NAtoms=     28 NQM=       28 NQMF=       0 NMMI=      0 NMMIF=      0
                NMic=       0 NMicF=      0.
                    Isotopes and Nuclear Properties:
 (Nuclear quadrupole moments (NQMom) in fm**2, nuclear magnetic moments (NMagM)
  in nuclear magnetons)

  Atom         1           2           3           4           5           6           7           8           9          10
 IAtWgt=          12           1           1          12          12           1           1           1          12           1
 AtmWgt=  12.0000000   1.0078250   1.0078250  12.0000000  12.0000000   1.0078250   1.0078250   1.0078250  12.0000000   1.0078250
 NucSpn=           0           1           1           0           0           1           1           1           0           1
 AtZEff=  -0.0000000  -0.0000000  -0.0000000  -0.0000000  -0.0000000  -0.0000000  -0.0000000  -0.0000000  -0.0000000  -0.0000000
 NQMom=    0.0000000   0.0000000   0.0000000   0.0000000   0.0000000   0.0000000   0.0000000   0.0000000   0.0000000   0.0000000
 NMagM=    0.0000000   2.7928460   2.7928460   0.0000000   0.0000000   2.7928460   2.7928460   2.7928460   0.0000000   2.7928460
 AtZNuc=   6.0000000   1.0000000   1.0000000   6.0000000   6.0000000   1.0000000   1.0000000   1.0000000   6.0000000   1.0000000

  Atom        11          12          13          14          15          16          17          18          19          20
 IAtWgt=          12           1           1           1          12           1           1           1          12          12
 AtmWgt=  12.0000000   1.0078250   1.0078250   1.0078250  12.0000000   1.0078250   1.0078250   1.0078250  12.0000000  12.0000000
 NucSpn=           0           1           1           1           0           1           1           1           0           0
 AtZEff=  -0.0000000  -0.0000000  -0.0000000  -0.0000000  -0.0000000  -0.0000000  -0.0000000  -0.0000000  -0.0000000  -0.0000000
 NQMom=    0.0000000   0.0000000   0.0000000   0.0000000   0.0000000   0.0000000   0.0000000   0.0000000   0.0000000   0.0000000
 NMagM=    0.0000000   2.7928460   2.7928460   2.7928460   0.0000000   2.7928460   2.7928460   2.7928460   0.0000000   0.0000000
 AtZNuc=   6.0000000   1.0000000   1.0000000   1.0000000   6.0000000   1.0000000   1.0000000   1.0000000   6.0000000   6.0000000

  Atom        21          22          23          24          25          26          27          28
 IAtWgt=           1           1           1          12           1          12           1           1
 AtmWgt=   1.0078250   1.0078250   1.0078250  12.0000000   1.0078250  12.0000000   1.0078250   1.0078250
 NucSpn=           1           1           1           0           1           0           1           1
 AtZEff=  -0.0000000  -0.0000000  -0.0000000  -0.0000000  -0.0000000  -0.0000000  -0.0000000  -0.0000000
 NQMom=    0.0000000   0.0000000   0.0000000   0.0000000   0.0000000   0.0000000   0.0000000   0.0000000
 NMagM=    2.7928460   2.7928460   2.7928460   0.0000000   2.7928460   0.0000000   2.7928460   2.7928460
 AtZNuc=   1.0000000   1.0000000   1.0000000   6.0000000   1.0000000   6.0000000   1.0000000   1.0000000
 Leave Link  101 at Fri Sep 17 13:32:34 2021, MaxMem=   524288000 cpu:               0.1 elap:               0.5
 (Enter /opt/gaussian/g16_legacy/l103.exe)

 GradGradGradGradGradGradGradGradGradGradGradGradGradGradGradGradGradGrad
 Berny optimization.
 Initialization pass.
                           ----------------------------
                           !    Initial Parameters    !
                           ! (Angstroms and Degrees)  !
 --------------------------                            --------------------------
 ! Name  Definition              Value          Derivative Info.                !
 --------------------------------------------------------------------------------
 ! R1    R(1,2)                  1.0966         estimate D2E/DX2                !
 ! R2    R(1,3)                  1.0984         estimate D2E/DX2                !
 ! R3    R(1,4)                  1.5148         estimate D2E/DX2                !
 ! R4    R(1,26)                 1.5319         estimate D2E/DX2                !
 ! R5    R(4,5)                  1.5072         estimate D2E/DX2                !
 ! R6    R(4,9)                  1.3477         estimate D2E/DX2                !
 ! R7    R(5,6)                  1.0949         estimate D2E/DX2                !
 ! R8    R(5,7)                  1.0952         estimate D2E/DX2                !
 ! R9    R(5,8)                  1.0944         estimate D2E/DX2                !
 ! R10   R(9,10)                 1.0897         estimate D2E/DX2                !
 ! R11   R(9,11)                 1.4961         estimate D2E/DX2                !
 ! R12   R(11,12)                1.0941         estimate D2E/DX2                !
 ! R13   R(11,13)                1.0948         estimate D2E/DX2                !
 ! R14   R(11,14)                1.0922         estimate D2E/DX2                !
 ! R15   R(15,16)                1.0948         estimate D2E/DX2                !
 ! R16   R(15,17)                1.0954         estimate D2E/DX2                !
 ! R17   R(15,18)                1.0923         estimate D2E/DX2                !
 ! R18   R(15,19)                1.5039         estimate D2E/DX2                !
 ! R19   R(19,20)                1.5065         estimate D2E/DX2                !
 ! R20   R(19,24)                1.3474         estimate D2E/DX2                !
 ! R21   R(20,21)                1.095          estimate D2E/DX2                !
 ! R22   R(20,22)                1.0949         estimate D2E/DX2                !
 ! R23   R(20,23)                1.0951         estimate D2E/DX2                !
 ! R24   R(24,25)                1.0901         estimate D2E/DX2                !
 ! R25   R(24,26)                1.5055         estimate D2E/DX2                !
 ! R26   R(26,27)                1.0949         estimate D2E/DX2                !
 ! R27   R(26,28)                1.0974         estimate D2E/DX2                !
 ! A1    A(2,1,3)              104.8487         estimate D2E/DX2                !
 ! A2    A(2,1,4)              110.586          estimate D2E/DX2                !
 ! A3    A(2,1,26)             109.9132         estimate D2E/DX2                !
 ! A4    A(3,1,4)              109.0115         estimate D2E/DX2                !
 ! A5    A(3,1,26)             110.0121         estimate D2E/DX2                !
 ! A6    A(4,1,26)             112.2087         estimate D2E/DX2                !
 ! A7    A(1,4,5)              115.0667         estimate D2E/DX2                !
 ! A8    A(1,4,9)              124.3754         estimate D2E/DX2                !
 ! A9    A(5,4,9)              120.5476         estimate D2E/DX2                !
 ! A10   A(4,5,6)              110.2791         estimate D2E/DX2                !
 ! A11   A(4,5,7)              112.2577         estimate D2E/DX2                !
 ! A12   A(4,5,8)              110.4733         estimate D2E/DX2                !
 ! A13   A(6,5,7)              107.5705         estimate D2E/DX2                !
 ! A14   A(6,5,8)              108.572          estimate D2E/DX2                !
 ! A15   A(7,5,8)              107.5534         estimate D2E/DX2                !
 ! A16   A(4,9,10)             118.5881         estimate D2E/DX2                !
 ! A17   A(4,9,11)             127.4887         estimate D2E/DX2                !
 ! A18   A(10,9,11)            113.9153         estimate D2E/DX2                !
 ! A19   A(9,11,12)            109.8499         estimate D2E/DX2                !
 ! A20   A(9,11,13)            109.4348         estimate D2E/DX2                !
 ! A21   A(9,11,14)            113.5162         estimate D2E/DX2                !
 ! A22   A(12,11,13)           108.1244         estimate D2E/DX2                !
 ! A23   A(12,11,14)           108.4581         estimate D2E/DX2                !
 ! A24   A(13,11,14)           107.2957         estimate D2E/DX2                !
 ! A25   A(16,15,17)           108.3276         estimate D2E/DX2                !
 ! A26   A(16,15,18)           107.9728         estimate D2E/DX2                !
 ! A27   A(16,15,19)           110.1005         estimate D2E/DX2                !
 ! A28   A(17,15,18)           106.7787         estimate D2E/DX2                !
 ! A29   A(17,15,19)           110.052          estimate D2E/DX2                !
 ! A30   A(18,15,19)           113.4319         estimate D2E/DX2                !
 ! A31   A(15,19,20)           114.2871         estimate D2E/DX2                !
 ! A32   A(15,19,24)           125.0549         estimate D2E/DX2                !
 ! A33   A(20,19,24)           120.6552         estimate D2E/DX2                !
 ! A34   A(19,20,21)           110.2899         estimate D2E/DX2                !
 ! A35   A(19,20,22)           110.205          estimate D2E/DX2                !
 ! A36   A(19,20,23)           112.3308         estimate D2E/DX2                !
 ! A37   A(21,20,22)           108.5676         estimate D2E/DX2                !
 ! A38   A(21,20,23)           107.6681         estimate D2E/DX2                !
 ! A39   A(22,20,23)           107.653          estimate D2E/DX2                !
 ! A40   A(19,24,25)           118.4394         estimate D2E/DX2                !
 ! A41   A(19,24,26)           127.6048         estimate D2E/DX2                !
 ! A42   A(25,24,26)           113.9486         estimate D2E/DX2                !
 ! A43   A(1,26,24)            111.4125         estimate D2E/DX2                !
 ! A44   A(1,26,27)            110.3525         estimate D2E/DX2                !
 ! A45   A(1,26,28)            110.0608         estimate D2E/DX2                !
 ! A46   A(24,26,27)           111.5349         estimate D2E/DX2                !
 ! A47   A(24,26,28)           107.752          estimate D2E/DX2                !
 ! A48   A(27,26,28)           105.5255         estimate D2E/DX2                !
 ! D1    D(2,1,4,5)           -151.4199         estimate D2E/DX2                !
 ! D2    D(2,1,4,9)             27.4126         estimate D2E/DX2                !
 ! D3    D(3,1,4,5)            -36.6514         estimate D2E/DX2                !
 ! D4    D(3,1,4,9)            142.1811         estimate D2E/DX2                !
 ! D5    D(26,1,4,5)            85.4647         estimate D2E/DX2                !
 ! D6    D(26,1,4,9)           -95.7028         estimate D2E/DX2                !
 ! D7    D(2,1,26,24)           56.9391         estimate D2E/DX2                !
 ! D8    D(2,1,26,27)          -67.533          estimate D2E/DX2                !
 ! D9    D(2,1,26,28)          176.4019         estimate D2E/DX2                !
 ! D10   D(3,1,26,24)          -58.0227         estimate D2E/DX2                !
 ! D11   D(3,1,26,27)          177.5052         estimate D2E/DX2                !
 ! D12   D(3,1,26,28)           61.4401         estimate D2E/DX2                !
 ! D13   D(4,1,26,24)         -179.5676         estimate D2E/DX2                !
 ! D14   D(4,1,26,27)           55.9602         estimate D2E/DX2                !
 ! D15   D(4,1,26,28)          -60.1049         estimate D2E/DX2                !
 ! D16   D(1,4,5,6)             59.5025         estimate D2E/DX2                !
 ! D17   D(1,4,5,7)            179.4338         estimate D2E/DX2                !
 ! D18   D(1,4,5,8)            -60.5232         estimate D2E/DX2                !
 ! D19   D(9,4,5,6)           -119.3785         estimate D2E/DX2                !
 ! D20   D(9,4,5,7)              0.5527         estimate D2E/DX2                !
 ! D21   D(9,4,5,8)            120.5957         estimate D2E/DX2                !
 ! D22   D(1,4,9,10)          -178.6052         estimate D2E/DX2                !
 ! D23   D(1,4,9,11)             2.4859         estimate D2E/DX2                !
 ! D24   D(5,4,9,10)             0.1668         estimate D2E/DX2                !
 ! D25   D(5,4,9,11)          -178.7421         estimate D2E/DX2                !
 ! D26   D(4,9,11,12)         -113.6895         estimate D2E/DX2                !
 ! D27   D(4,9,11,13)          127.7496         estimate D2E/DX2                !
 ! D28   D(4,9,11,14)            7.9242         estimate D2E/DX2                !
 ! D29   D(10,9,11,12)          67.3585         estimate D2E/DX2                !
 ! D30   D(10,9,11,13)         -51.2024         estimate D2E/DX2                !
 ! D31   D(10,9,11,14)        -171.0278         estimate D2E/DX2                !
 ! D32   D(16,15,19,20)         66.5513         estimate D2E/DX2                !
 ! D33   D(16,15,19,24)       -114.0541         estimate D2E/DX2                !
 ! D34   D(17,15,19,20)        -52.7909         estimate D2E/DX2                !
 ! D35   D(17,15,19,24)        126.6036         estimate D2E/DX2                !
 ! D36   D(18,15,19,20)       -172.3364         estimate D2E/DX2                !
 ! D37   D(18,15,19,24)          7.0581         estimate D2E/DX2                !
 ! D38   D(15,19,20,21)         60.2604         estimate D2E/DX2                !
 ! D39   D(15,19,20,22)        -59.5951         estimate D2E/DX2                !
 ! D40   D(15,19,20,23)       -179.6286         estimate D2E/DX2                !
 ! D41   D(24,19,20,21)       -119.1635         estimate D2E/DX2                !
 ! D42   D(24,19,20,22)        120.981          estimate D2E/DX2                !
 ! D43   D(24,19,20,23)          0.9476         estimate D2E/DX2                !
 ! D44   D(15,19,24,25)       -178.835          estimate D2E/DX2                !
 ! D45   D(15,19,24,26)          2.2103         estimate D2E/DX2                !
 ! D46   D(20,19,24,25)          0.5235         estimate D2E/DX2                !
 ! D47   D(20,19,24,26)       -178.4313         estimate D2E/DX2                !
 ! D48   D(19,24,26,1)        -103.3643         estimate D2E/DX2                !
 ! D49   D(19,24,26,27)         20.4403         estimate D2E/DX2                !
 ! D50   D(19,24,26,28)        135.8111         estimate D2E/DX2                !
 ! D51   D(25,24,26,1)          77.6414         estimate D2E/DX2                !
 ! D52   D(25,24,26,27)       -158.554          estimate D2E/DX2                !
 ! D53   D(25,24,26,28)        -43.1833         estimate D2E/DX2                !
 --------------------------------------------------------------------------------
 Trust Radius=3.00D-01 FncErr=1.00D-07 GrdErr=1.00D-07 EigMax=2.50D+02 EigMin=1.00D-04
 Number of steps in this run=    138 maximum allowed number of steps=    168.
 GradGradGradGradGradGradGradGradGradGradGradGradGradGradGradGradGradGrad

 Leave Link  103 at Fri Sep 17 13:32:34 2021, MaxMem=   524288000 cpu:               0.0 elap:               0.4
 (Enter /opt/gaussian/g16_legacy/l202.exe)
                          Input orientation:                          
 ---------------------------------------------------------------------
 Center     Atomic      Atomic             Coordinates (Angstroms)
 Number     Number       Type             X           Y           Z
 ---------------------------------------------------------------------
      1          6           0       -0.001900    1.149700    0.275500
      2          1           0       -0.708500    0.606700    0.914500
      3          1           0       -0.551700    2.039700   -0.059200
      4          6           0        1.208800    1.588600    1.073200
      5          6           0        1.884800    2.839000    0.571900
      6          1           0        1.183500    3.679800    0.582400
      7          1           0        2.746600    3.119600    1.186700
      8          1           0        2.242600    2.696300   -0.452500
      9          6           0        1.668700    0.953800    2.169500
     10          1           0        2.536000    1.365500    2.685100
     11          6           0        1.138000   -0.302900    2.783800
     12          1           0        0.714700   -0.084900    3.768900
     13          1           0        1.956600   -1.017900    2.915500
     14          1           0        0.372200   -0.793800    2.179300
     15          6           0       -1.024300   -2.510800   -0.875000
     16          1           0       -0.655100   -3.320200   -1.513000
     17          1           0       -1.882200   -2.884900   -0.305800
     18          1           0       -0.244200   -2.271500   -0.148800
     19          6           0       -1.437500   -1.335800   -1.717900
     20          6           0       -2.633100   -1.594000   -2.597300
     21          1           0       -3.503500   -1.856900   -1.987200
     22          1           0       -2.425900   -2.421300   -3.283900
     23          1           0       -2.901900   -0.720800   -3.201000
     24          6           0       -0.833600   -0.131300   -1.715700
     25          1           0       -1.235900    0.652300   -2.357900
     26          6           0        0.381200    0.285900   -0.930300
     27          1           0        0.967900   -0.580300   -0.607200
     28          1           0        1.037800    0.850500   -1.604400
 ---------------------------------------------------------------------
                    Distance matrix (angstroms):
                    1          2          3          4          5
     1  C    0.000000
     2  H    1.096564   0.000000
     3  H    1.098364   1.739588   0.000000
     4  C    1.514844   2.159943   2.141304   0.000000
     5  C    2.549750   3.438858   2.640776   1.507242   0.000000
     6  H    2.810830   3.624072   2.472347   2.148172   1.094932
     7  H    3.502148   4.280943   3.687443   2.172941   1.095178
     8  H    2.821300   3.865761   2.897226   2.150233   1.094431
     9  C    2.533085   2.710458   3.328131   1.347721   2.480525
    10  H    3.506234   3.773272   4.185644   2.099870   2.657231
    11  C    3.114641   2.780507   4.052840   2.551262   3.914300
    12  H    3.773804   3.263650   4.557636   3.211158   4.487665
    13  H    3.937488   3.707571   4.948669   3.278279   4.513679
    14  H    2.746197   2.174634   3.727358   2.756662   4.250756
    15  C    3.970921   3.608441   4.647142   5.058389   6.259133
    16  H    4.858540   4.616942   5.554526   5.853108   6.980949
    17  H    4.489035   3.880461   5.107125   5.609646   6.908233
    18  H    3.455915   3.103259   4.323081   4.301728   5.582944
    19  C    3.494610   3.351757   3.863926   4.831693   5.806016
    20  C    4.764880   4.569453   4.896729   6.193683   7.078611
    21  H    5.140103   4.722416   5.254883   6.591152   7.591722
    22  H    5.594385   5.453880   5.814795   6.947997   7.817934
    23  H    4.898451   4.848773   4.797365   6.363959   7.058289
    24  C    2.509495   2.734638   2.745305   3.861012   4.630928
    25  H    2.950417   3.314941   2.770745   4.315746   4.806678
    26  C    1.531950   2.166482   2.169086   2.529024   3.322008
    27  H    2.170846   2.556337   3.077968   2.754252   3.731299
    28  H    2.168991   3.074713   2.515621   2.782728   3.067217
                    6          7          8          9         10
     6  H    0.000000
     7  H    1.766999   0.000000
     8  H    1.777634   1.766402   0.000000
     9  C    3.191454   2.611217   3.200086   0.000000
    10  H    3.406844   2.316554   3.420767   1.089747   0.000000
    11  C    4.550839   4.105098   4.548514   1.496096   2.178923
    12  H    4.954445   4.589684   5.281077   2.132392   2.568154
    13  H    5.301832   4.553214   5.022002   2.127676   2.463612
    14  H    4.818858   4.683773   4.754531   2.176032   3.098458
    15  C    6.732156   7.083198   6.161577   5.340850   6.354192
    16  H    7.534663   7.767301   6.761627   6.101469   7.054286
    17  H    7.299500   7.727054   6.941562   5.785466   6.821428
    18  H    6.163680   6.308122   5.563762   4.408658   5.384076
    19  C    6.108786   6.767125   5.603767   5.477465   6.517065
    20  C    7.244991   8.091839   6.839539   6.907905   7.961280
    21  H    7.695834   8.596682   7.490300   7.206236   8.287932
    22  H    8.074619   8.800147   7.483418   7.608983   8.636508
    23  H    7.097175   8.118259   6.759934   7.248237   8.280675
    24  C    4.886148   5.640045   4.365089   4.746970   5.741224
    25  H    4.864629   5.874697   4.461888   5.387481   6.337802
    26  C    3.801382   4.255192   3.082715   3.422354   4.345091
    27  H    4.428327   4.480079   3.519219   3.248792   4.133318
    28  H    3.578863   3.982342   2.487045   3.827666   4.572706
                   11         12         13         14         15
    11  C    0.000000
    12  H    1.094134   0.000000
    13  H    1.094841   1.772314   0.000000
    14  H    1.092178   1.773887   1.761401   0.000000
    15  C    4.789278   5.520409   5.048010   3.771876   0.000000
    16  H    5.548135   6.343657   5.633221   4.590329   1.094752
    17  H    5.033285   5.584538   5.347789   3.953573   1.095414
    18  H    3.792889   4.587928   3.975546   2.825526   1.092331
    19  C    5.288231   6.025088   5.752336   4.330929   1.503941
    20  C    6.696594   7.349398   7.196402   5.699829   2.528849
    21  H    6.835267   7.352951   7.386006   5.788865   2.794818
    22  H    7.348876   8.066233   7.720648   6.350171   2.788421
    23  H    7.232791   7.878050   7.816960   6.298626   3.484216
    24  C    4.915501   5.699142   5.478986   4.130846   2.530842
    25  H    5.743247   6.471938   6.386734   5.026268   3.499853
    26  C    3.835879   4.725589   4.355681   3.291724   3.130498
    27  H    3.406577   4.411324   3.684893   2.857450   2.787007
    28  H    4.538356   5.463673   4.976405   4.178891   4.010314
                   16         17         18         19         20
    16  H    0.000000
    17  H    1.775554   0.000000
    18  H    1.769082   1.756119   0.000000
    19  C    2.142890   2.142777   2.182103   0.000000
    20  C    2.840415   2.735187   3.487263   1.506476   0.000000
    21  H    3.237205   2.551961   3.764923   2.147655   1.094959
    22  H    2.660797   3.062616   3.822448   2.146532   1.094887
    23  H    3.828098   3.755702   4.334047   2.173080   1.095073
    24  C    3.200318   3.266450   2.717172   1.347412   2.480909
    25  H    4.102675   4.140121   3.796340   2.098281   2.656190
    26  C    3.797027   3.945498   2.746300   2.560839   3.924145
    27  H    3.310839   3.677648   2.130604   2.755065   4.237368
    28  H    4.502111   4.915890   3.675484   3.304527   4.520723
                   21         22         23         24         25
    21  H    0.000000
    22  H    1.777976   0.000000
    23  H    1.768037   1.767809   0.000000
    24  C    3.190576   3.199808   2.613712   0.000000
    25  H    3.402281   3.423535   2.317709   1.090089   0.000000
    26  C    4.560649   4.555016   4.116828   1.505539   2.187991
    27  H    4.850518   4.698072   4.660782   2.162354   3.072619
    28  H    5.300939   5.051991   4.532036   2.116236   2.403489
                   26         27         28
    26  C    0.000000
    27  H    1.094949   0.000000
    28  H    1.097409   1.745418   0.000000
 Stoichiometry    C10H18
 Framework group  C1[X(C10H18)]
 Deg. of freedom    78
 Full point group                 C1      NOp   1
 Largest Abelian subgroup         C1      NOp   1
 Largest concise Abelian subgroup C1      NOp   1
                         Standard orientation:                         
 ---------------------------------------------------------------------
 Center     Atomic      Atomic             Coordinates (Angstroms)
 Number     Number       Type             X           Y           Z
 ---------------------------------------------------------------------
      1          6           0       -0.793752   -0.586492    0.589190
      2          1           0       -0.484576    0.235299    1.246093
      3          1           0       -0.746005   -1.484336    1.220064
      4          6           0       -2.220895   -0.386919    0.122085
      5          6           0       -2.975644   -1.655001   -0.184672
      6          1           0       -3.025290   -2.291677    0.704741
      7          1           0       -4.003282   -1.458171   -0.508141
      8          1           0       -2.478707   -2.212187   -0.984907
      9          6           0       -2.820199    0.813870   -0.001587
     10          1           0       -3.860413    0.846687   -0.324738
     11          6           0       -2.215727    2.161848    0.234784
     12          1           0       -2.690869    2.635723    1.098966
     13          1           0       -2.388764    2.797145   -0.639933
     14          1           0       -1.137498    2.131954    0.406196
     15          6           0        2.465959    1.425908   -0.456153
     16          1           0        3.076406    1.626092   -1.342585
     17          1           0        2.815312    2.072769    0.355915
     18          1           0        1.439555    1.725969   -0.678963
     19          6           0        2.593414   -0.018264   -0.056199
     20          6           0        3.965109   -0.407910    0.429702
     21          1           0        4.237076    0.181292    1.311637
     22          1           0        4.708996   -0.227411   -0.353132
     23          1           0        4.023688   -1.465968    0.705867
     24          6           0        1.596330   -0.923606   -0.097416
     25          1           0        1.804013   -1.940173    0.236880
     26          6           0        0.185972   -0.715584   -0.581428
     27          1           0        0.111169    0.157005   -1.238623
     28          1           0       -0.084220   -1.577119   -1.205175
 ---------------------------------------------------------------------
 Rotational constants (GHZ):           2.2181509           0.5802334           0.4854277
 Leave Link  202 at Fri Sep 17 13:32:35 2021, MaxMem=   524288000 cpu:               0.0 elap:               0.1
 (Enter /opt/gaussian/g16_legacy/l301.exe)
 Standard basis: 6-31G(d,p) (6D, 7F)
 Ernie: Thresh=  0.10000D-02 Tol=  0.10000D-05 Strict=F.
 There are   240 symmetry adapted cartesian basis functions of A   symmetry.
 There are   240 symmetry adapted basis functions of A   symmetry.
   240 basis functions,   406 primitive gaussians,   240 cartesian basis functions
    39 alpha electrons       39 beta electrons
       nuclear repulsion energy       516.4376681920 Hartrees.
 IExCor=    0 DFT=F Ex=HF Corr=None ExCW=0 ScaHFX=  1.000000
 ScaDFX=  1.000000  1.000000  1.000000  1.000000 ScalE2=  1.000000  1.000000
 IRadAn=      5 IRanWt=     -1 IRanGd=            0 ICorTp=0 IEmpDi=  4
 NAtoms=   28 NActive=   28 NUniq=   28 SFac= 1.00D+00 NAtFMM=   60 NAOKFM=F Big=F
 Integral buffers will be    131072 words long.
 Raffenetti 1 integral format.
 Two-electron integral symmetry is turned on.
 Leave Link  301 at Fri Sep 17 13:32:36 2021, MaxMem=   524288000 cpu:               0.0 elap:               0.7
 (Enter /opt/gaussian/g16_legacy/l302.exe)
 NPDir=0 NMtPBC=     1 NCelOv=     1 NCel=       1 NClECP=     1 NCelD=      1
         NCelK=      1 NCelE2=     1 NClLst=     1 CellRange=     0.0.
 One-electron integrals computed using PRISM.
 One-electron integral symmetry used in STVInt
 NBasis=   240 RedAO= T EigKep=  2.10D-03  NBF=   240
 NBsUse=   240 1.00D-06 EigRej= -1.00D+00 NBFU=   240
 Leave Link  302 at Fri Sep 17 13:32:36 2021, MaxMem=   524288000 cpu:               0.2 elap:               0.4
 (Enter /opt/gaussian/g16_legacy/l303.exe)
 DipDrv:  MaxL=1.
 Leave Link  303 at Fri Sep 17 13:32:37 2021, MaxMem=   524288000 cpu:               0.0 elap:               0.3
 (Enter /opt/gaussian/g16_legacy/l401.exe)
 ExpMin= 1.61D-01 ExpMax= 3.05D+03 ExpMxC= 4.57D+02 IAcc=3 IRadAn=         5 AccDes= 0.00D+00
 Harris functional with IExCor=  205 and IRadAn=       5 diagonalized for initial guess.
 HarFok:  IExCor=  205 AccDes= 0.00D+00 IRadAn=         5 IDoV= 1 UseB2=F ITyADJ=14
 ICtDFT=  3500011 ScaDFX=  1.000000  1.000000  1.000000  1.000000
 FoFCou: FMM=F IPFlag=           0 FMFlag=      100000 FMFlg1=           0
         NFxFlg=           0 DoJE=T BraDBF=F KetDBF=T FulRan=T
         wScrn=  0.000000 ICntrl=       500 IOpCl=  0 I1Cent=   200000004 NGrid=           0
         NMat0=    1 NMatS0=      1 NMatT0=    0 NMatD0=    1 NMtDS0=    0 NMtDT0=    0
 Petite list used in FoFCou.
 Harris En= -390.109917399749    
 JPrj=0 DoOrth=F DoCkMO=F.
 Leave Link  401 at Fri Sep 17 13:32:44 2021, MaxMem=   524288000 cpu:               6.2 elap:               7.5
 (Enter /opt/gaussian/g16_legacy/l502.exe)
 Keep R1 ints in memory in canonical form, NReq=425198025.
 FoFCou: FMM=F IPFlag=           0 FMFlag=           0 FMFlg1=           0
         NFxFlg=           0 DoJE=F BraDBF=F KetDBF=F FulRan=T
         wScrn=  0.000000 ICntrl=       600 IOpCl=  0 I1Cent=           0 NGrid=           0
         NMat0=    1 NMatS0=  28920 NMatT0=    0 NMatD0=    1 NMtDS0=    0 NMtDT0=    0
 Symmetry not used in FoFCou.
 Two-electron integral symmetry not used.
 Closed shell SCF:
 Using DIIS extrapolation, IDIIS=  1040.
 NGot=   524288000 LenX=   105970886 LenY=   105912845
 Requested convergence on RMS density matrix=1.00D-08 within 128 cycles.
 Requested convergence on MAX density matrix=1.00D-06.
 Requested convergence on             energy=1.00D-06.
 No special actions if energy rises.

 Cycle   1  Pass 1  IDiag  1:
 E= -388.533169441551    
 DIIS: error= 5.21D-02 at cycle   1 NSaved=   1.
 NSaved= 1 IEnMin= 1 EnMin= -388.533169441551     IErMin= 1 ErrMin= 5.21D-02
 ErrMax= 5.21D-02  0.00D+00 EMaxC= 1.00D-01 BMatC= 8.07D-01 BMatP= 8.07D-01
 IDIUse=3 WtCom= 4.79D-01 WtEn= 5.21D-01
 Coeff-Com:  0.100D+01
 Coeff-En:   0.100D+01
 Coeff:      0.100D+01
 Gap=     0.508 Goal=   None    Shift=    0.000
 GapD=    0.508 DampG=2.000 DampE=0.500 DampFc=1.0000 IDamp=-1.
 RMSDP=4.00D-03 MaxDP=1.14D-01              OVMax= 1.33D-01

 Cycle   2  Pass 1  IDiag  1:
 E= -389.073877766399     Delta-E=       -0.540708324848 Rises=F Damp=F
 DIIS: error= 1.59D-02 at cycle   2 NSaved=   2.
 NSaved= 2 IEnMin= 2 EnMin= -389.073877766399     IErMin= 2 ErrMin= 1.59D-02
 ErrMax= 1.59D-02  0.00D+00 EMaxC= 1.00D-01 BMatC= 8.66D-02 BMatP= 8.07D-01
 IDIUse=3 WtCom= 8.41D-01 WtEn= 1.59D-01
 Coeff-Com:  0.183D+00 0.817D+00
 Coeff-En:   0.000D+00 0.100D+01
 Coeff:      0.154D+00 0.846D+00
 Gap=     0.549 Goal=   None    Shift=    0.000
 RMSDP=1.63D-03 MaxDP=3.04D-02 DE=-5.41D-01 OVMax= 4.61D-02

 Cycle   3  Pass 1  IDiag  1:
 E= -389.151439806464     Delta-E=       -0.077562040065 Rises=F Damp=F
 DIIS: error= 3.43D-03 at cycle   3 NSaved=   3.
 NSaved= 3 IEnMin= 3 EnMin= -389.151439806464     IErMin= 3 ErrMin= 3.43D-03
 ErrMax= 3.43D-03  0.00D+00 EMaxC= 1.00D-01 BMatC= 3.14D-03 BMatP= 8.66D-02
 IDIUse=3 WtCom= 9.66D-01 WtEn= 3.43D-02
 Coeff-Com: -0.245D-01 0.106D+00 0.919D+00
 Coeff-En:   0.000D+00 0.000D+00 0.100D+01
 Coeff:     -0.236D-01 0.102D+00 0.921D+00
 Gap=     0.499 Goal=   None    Shift=    0.000
 RMSDP=2.59D-04 MaxDP=7.14D-03 DE=-7.76D-02 OVMax= 1.01D-02

 Cycle   4  Pass 1  IDiag  1:
 E= -389.155065692981     Delta-E=       -0.003625886518 Rises=F Damp=F
 DIIS: error= 5.31D-04 at cycle   4 NSaved=   4.
 NSaved= 4 IEnMin= 4 EnMin= -389.155065692981     IErMin= 4 ErrMin= 5.31D-04
 ErrMax= 5.31D-04  0.00D+00 EMaxC= 1.00D-01 BMatC= 9.29D-05 BMatP= 3.14D-03
 IDIUse=3 WtCom= 9.95D-01 WtEn= 5.31D-03
 Coeff-Com: -0.424D-02-0.189D-02 0.950D-01 0.911D+00
 Coeff-En:   0.000D+00 0.000D+00 0.000D+00 0.100D+01
 Coeff:     -0.422D-02-0.188D-02 0.945D-01 0.912D+00
 Gap=     0.499 Goal=   None    Shift=    0.000
 RMSDP=7.39D-05 MaxDP=1.49D-03 DE=-3.63D-03 OVMax= 3.14D-03

 Cycle   5  Pass 1  IDiag  1:
 E= -389.155190032969     Delta-E=       -0.000124339987 Rises=F Damp=F
 DIIS: error= 1.63D-04 at cycle   5 NSaved=   5.
 NSaved= 5 IEnMin= 5 EnMin= -389.155190032969     IErMin= 5 ErrMin= 1.63D-04
 ErrMax= 1.63D-04  0.00D+00 EMaxC= 1.00D-01 BMatC= 1.60D-05 BMatP= 9.29D-05
 IDIUse=3 WtCom= 9.98D-01 WtEn= 1.63D-03
 Coeff-Com:  0.241D-02-0.152D-01-0.102D+00 0.176D+00 0.939D+00
 Coeff-En:   0.000D+00 0.000D+00 0.000D+00 0.000D+00 0.100D+01
 Coeff:      0.241D-02-0.152D-01-0.102D+00 0.175D+00 0.939D+00
 Gap=     0.500 Goal=   None    Shift=    0.000
 RMSDP=3.00D-05 MaxDP=6.56D-04 DE=-1.24D-04 OVMax= 9.23D-04

 Cycle   6  Pass 1  IDiag  1:
 E= -389.155211513612     Delta-E=       -0.000021480644 Rises=F Damp=F
 DIIS: error= 3.58D-05 at cycle   6 NSaved=   6.
 NSaved= 6 IEnMin= 6 EnMin= -389.155211513612     IErMin= 6 ErrMin= 3.58D-05
 ErrMax= 3.58D-05  0.00D+00 EMaxC= 1.00D-01 BMatC= 5.50D-07 BMatP= 1.60D-05
 IDIUse=1 WtCom= 1.00D+00 WtEn= 0.00D+00
 Coeff-Com:  0.720D-03-0.335D-02-0.261D-01-0.434D-02 0.177D+00 0.856D+00
 Coeff:      0.720D-03-0.335D-02-0.261D-01-0.434D-02 0.177D+00 0.856D+00
 Gap=     0.500 Goal=   None    Shift=    0.000
 RMSDP=5.30D-06 MaxDP=1.61D-04 DE=-2.15D-05 OVMax= 3.23D-04

 Cycle   7  Pass 1  IDiag  1:
 E= -389.155212354531     Delta-E=       -0.000000840919 Rises=F Damp=F
 DIIS: error= 1.03D-05 at cycle   7 NSaved=   7.
 NSaved= 7 IEnMin= 7 EnMin= -389.155212354531     IErMin= 7 ErrMin= 1.03D-05
 ErrMax= 1.03D-05  0.00D+00 EMaxC= 1.00D-01 BMatC= 5.44D-08 BMatP= 5.50D-07
 IDIUse=1 WtCom= 1.00D+00 WtEn= 0.00D+00
 Coeff-Com: -0.494D-04 0.464D-03 0.301D-02-0.105D-01-0.468D-01 0.145D+00
 Coeff-Com:  0.909D+00
 Coeff:     -0.494D-04 0.464D-03 0.301D-02-0.105D-01-0.468D-01 0.145D+00
 Coeff:      0.909D+00
 Gap=     0.500 Goal=   None    Shift=    0.000
 RMSDP=1.71D-06 MaxDP=4.10D-05 DE=-8.41D-07 OVMax= 8.42D-05

 Cycle   8  Pass 1  IDiag  1:
 E= -389.155212443453     Delta-E=       -0.000000088923 Rises=F Damp=F
 DIIS: error= 3.51D-06 at cycle   8 NSaved=   8.
 NSaved= 8 IEnMin= 8 EnMin= -389.155212443453     IErMin= 8 ErrMin= 3.51D-06
 ErrMax= 3.51D-06  0.00D+00 EMaxC= 1.00D-01 BMatC= 5.09D-09 BMatP= 5.44D-08
 IDIUse=1 WtCom= 1.00D+00 WtEn= 0.00D+00
 Coeff-Com: -0.581D-04 0.249D-03 0.208D-02 0.315D-02-0.171D-01-0.804D-01
 Coeff-Com: -0.123D+00 0.121D+01
 Coeff:     -0.581D-04 0.249D-03 0.208D-02 0.315D-02-0.171D-01-0.804D-01
 Coeff:     -0.123D+00 0.121D+01
 Gap=     0.500 Goal=   None    Shift=    0.000
 RMSDP=7.85D-07 MaxDP=2.41D-05 DE=-8.89D-08 OVMax= 5.81D-05

 Cycle   9  Pass 1  IDiag  1:
 E= -389.155212459312     Delta-E=       -0.000000015858 Rises=F Damp=F
 DIIS: error= 1.46D-06 at cycle   9 NSaved=   9.
 NSaved= 9 IEnMin= 9 EnMin= -389.155212459312     IErMin= 9 ErrMin= 1.46D-06
 ErrMax= 1.46D-06  0.00D+00 EMaxC= 1.00D-01 BMatC= 7.38D-10 BMatP= 5.09D-09
 IDIUse=1 WtCom= 1.00D+00 WtEn= 0.00D+00
 Coeff-Com:  0.929D-05-0.690D-04-0.480D-03 0.144D-02 0.385D-02 0.968D-04
 Coeff-Com: -0.865D-01-0.120D+00 0.120D+01
 Coeff:      0.929D-05-0.690D-04-0.480D-03 0.144D-02 0.385D-02 0.968D-04
 Coeff:     -0.865D-01-0.120D+00 0.120D+01
 Gap=     0.500 Goal=   None    Shift=    0.000
 RMSDP=2.99D-07 MaxDP=1.24D-05 DE=-1.59D-08 OVMax= 2.71D-05

 Cycle  10  Pass 1  IDiag  1:
 E= -389.155212461731     Delta-E=       -0.000000002419 Rises=F Damp=F
 DIIS: error= 3.97D-07 at cycle  10 NSaved=  10.
 NSaved=10 IEnMin=10 EnMin= -389.155212461731     IErMin=10 ErrMin= 3.97D-07
 ErrMax= 3.97D-07  0.00D+00 EMaxC= 1.00D-01 BMatC= 1.21D-10 BMatP= 7.38D-10
 IDIUse=1 WtCom= 1.00D+00 WtEn= 0.00D+00
 Coeff-Com:  0.952D-05-0.464D-04-0.369D-03-0.135D-03 0.233D-02 0.142D-01
 Coeff-Com:  0.597D-02-0.211D+00 0.143D+00 0.105D+01
 Coeff:      0.952D-05-0.464D-04-0.369D-03-0.135D-03 0.233D-02 0.142D-01
 Coeff:      0.597D-02-0.211D+00 0.143D+00 0.105D+01
 Gap=     0.500 Goal=   None    Shift=    0.000
 RMSDP=1.24D-07 MaxDP=3.07D-06 DE=-2.42D-09 OVMax= 9.87D-06

 Cycle  11  Pass 1  IDiag  1:
 E= -389.155212462053     Delta-E=       -0.000000000322 Rises=F Damp=F
 DIIS: error= 1.55D-07 at cycle  11 NSaved=  11.
 NSaved=11 IEnMin=11 EnMin= -389.155212462053     IErMin=11 ErrMin= 1.55D-07
 ErrMax= 1.55D-07  0.00D+00 EMaxC= 1.00D-01 BMatC= 9.53D-12 BMatP= 1.21D-10
 IDIUse=1 WtCom= 1.00D+00 WtEn= 0.00D+00
 Coeff-Com:  0.394D-06 0.840D-06 0.102D-05-0.149D-03-0.305D-03 0.277D-02
 Coeff-Com:  0.110D-01-0.153D-01-0.107D+00 0.164D+00 0.945D+00
 Coeff:      0.394D-06 0.840D-06 0.102D-05-0.149D-03-0.305D-03 0.277D-02
 Coeff:      0.110D-01-0.153D-01-0.107D+00 0.164D+00 0.945D+00
 Gap=     0.500 Goal=   None    Shift=    0.000
 RMSDP=2.76D-08 MaxDP=1.16D-06 DE=-3.22D-10 OVMax= 2.51D-06

 Cycle  12  Pass 1  IDiag  1:
 E= -389.155212462079     Delta-E=       -0.000000000026 Rises=F Damp=F
 DIIS: error= 3.63D-08 at cycle  12 NSaved=  12.
 NSaved=12 IEnMin=12 EnMin= -389.155212462079     IErMin=12 ErrMin= 3.63D-08
 ErrMax= 3.63D-08  0.00D+00 EMaxC= 1.00D-01 BMatC= 1.17D-12 BMatP= 9.53D-12
 IDIUse=1 WtCom= 1.00D+00 WtEn= 0.00D+00
 Coeff-Com: -0.102D-05 0.547D-05 0.429D-04 0.324D-05-0.342D-03-0.126D-02
 Coeff-Com:  0.366D-03 0.217D-01-0.321D-01-0.113D+00 0.985D-01 0.103D+01
 Coeff:     -0.102D-05 0.547D-05 0.429D-04 0.324D-05-0.342D-03-0.126D-02
 Coeff:      0.366D-03 0.217D-01-0.321D-01-0.113D+00 0.985D-01 0.103D+01
 Gap=     0.500 Goal=   None    Shift=    0.000
 RMSDP=1.18D-08 MaxDP=3.33D-07 DE=-2.58D-11 OVMax= 8.46D-07

 Cycle  13  Pass 1  IDiag  1:
 E= -389.155212462078     Delta-E=        0.000000000001 Rises=F Damp=F
 DIIS: error= 1.06D-08 at cycle  13 NSaved=  13.
 NSaved=13 IEnMin=12 EnMin= -389.155212462079     IErMin=13 ErrMin= 1.06D-08
 ErrMax= 1.06D-08  0.00D+00 EMaxC= 1.00D-01 BMatC= 5.47D-14 BMatP= 1.17D-12
 IDIUse=1 WtCom= 1.00D+00 WtEn= 0.00D+00
 Coeff-Com: -0.122D-06 0.462D-06 0.389D-05 0.136D-04-0.170D-04-0.298D-03
 Coeff-Com: -0.849D-03 0.352D-02 0.516D-02-0.213D-01-0.612D-01 0.111D+00
 Coeff-Com:  0.964D+00
 Coeff:     -0.122D-06 0.462D-06 0.389D-05 0.136D-04-0.170D-04-0.298D-03
 Coeff:     -0.849D-03 0.352D-02 0.516D-02-0.213D-01-0.612D-01 0.111D+00
 Coeff:      0.964D+00
 Gap=     0.500 Goal=   None    Shift=    0.000
 RMSDP=2.13D-09 MaxDP=7.02D-08 DE= 1.14D-12 OVMax= 1.05D-07

 SCF Done:  E(RHF) =  -389.155212462     A.U. after   13 cycles
            NFock= 13  Conv=0.21D-08     -V/T= 2.0014
 KE= 3.886262968538D+02 PE=-1.937509457132D+03 EE= 6.432902796240D+02
 Leave Link  502 at Fri Sep 17 13:33:03 2021, MaxMem=   524288000 cpu:              18.1 elap:              18.4
 (Enter /opt/gaussian/g16_legacy/l801.exe)
 ExpMin= 1.61D-01 ExpMax= 3.05D+03 ExpMxC= 4.57D+02 IAcc=3 IRadAn=         5 AccDes= 0.00D+00
 HarFok:  IExCor=  205 AccDes= 0.00D+00 IRadAn=         5 IDoV=-2 UseB2=F ITyADJ=14
 ICtDFT= 12500011 ScaDFX=  1.000000  1.000000  1.000000  1.000000
 Largest valence mixing into a core orbital is  1.98D-04
 Largest core mixing into a valence orbital is  3.52D-05
 Range of M.O.s used for correlation:    11   240
 NBasis=   240 NAE=    39 NBE=    39 NFC=    10 NFV=     0
 NROrb=    230 NOA=    29 NOB=    29 NVA=   201 NVB=   201
 Leave Link  801 at Fri Sep 17 13:33:05 2021, MaxMem=   524288000 cpu:               0.9 elap:               2.0
 (Enter /opt/gaussian/g16_legacy/l906.exe)
 Frozen-core derivative calculation, NFC=  10 NFV=   0.
 FulOut=F Deriv=T AODrv=T NAtomX=    28
   MMem=          88  MDisk=          29 MDiskD=          29
  W3Min=     2246400 MinDsk=     2795480 NBas6D=         240
 NBas2D=       29244    NTT=       28920    LW2=     2040000
    MDV=   523626386 MDiskM=       30186 NBas2p=       24383
 Fully direct method using O(ONN) memory.
 IMap=   1   2   3   4   5   6   7   8   9  10  11  12  13  14  15  16  17  18  19  20
 IMap=  21  22  23  24  25  26  27  28  29  30  31  32  33  34  35  36  37  38  39
 JobTyp=1 Pass  1:  I=  11 to  39 NPSUse=  1 ParTrn=F ParDer=F DoDerP=T.
 Spin components of T(2) and E(2):
     alpha-alpha T2 =       0.5715093737D-01 E2=     -0.1638024280D+00
     alpha-beta  T2 =       0.3618106741D+00 E2=     -0.1089334402D+01
     beta-beta   T2 =       0.5715093737D-01 E2=     -0.1638024280D+00
 The integrals were generated   1 times.
 ANorm=    0.1214953723D+01
 E2 =    -0.1416939258D+01 EUMP2 =    -0.39057215171983D+03
 Leave Link  906 at Fri Sep 17 13:35:28 2021, MaxMem=   524288000 cpu:             141.5 elap:             142.2
 (Enter /opt/gaussian/g16_legacy/l1002.exe)
 Minotr:  Closed shell wavefunction.
          Computing MP2/KS-MP2 derivatives.
          Using Z-Vector for PSCF gradient.
          Skipping F1 and S1 gradient terms here.
          IDoAtm=1111111111111111111111111111
          Frozen-core window.
          Direct CPHF calculation.
          Differentiating once with respect to electric field.
                with respect to dipole field.
          Differentiating once with respect to nuclear coordinates.
          Requested convergence is 1.0D-10 RMS, and 1.0D-09 maximum.
          NewPWx=F KeepS1=T KeepF1=T KeepIn=T MapXYZ=F SortEE=F KeepMc=T.
 Keep R1 ints in memory in canonical form, NReq=425201067.
 FoFCou: FMM=F IPFlag=           0 FMFlag=           0 FMFlg1=           0
         NFxFlg=           0 DoJE=F BraDBF=F KetDBF=F FulRan=T
         wScrn=  0.000000 ICntrl=       600 IOpCl=  0 I1Cent=           0 NGrid=           0
         NMat0=    1 NMatS0=  28920 NMatT0=    0 NMatD0=    1 NMtDS0=    0 NMtDT0=    0
 Symmetry not used in FoFCou.
 Two-electron integral symmetry not used.
          MDV=     524288000 using IRadAn=       5.
          Solving linear equations separately, MaxMat=       0.
          There are     1 degrees of freedom in the 1st order CPHF.  IDoFFX=0 NUNeed=     1.
 LinEq1:  Iter=  0 NonCon=     1 RMS=2.55D-03 Max=3.76D-02 NDo=     1
 AX will form     1 AO Fock derivatives at one time.
 LinEq1:  Iter=  1 NonCon=     1 RMS=6.90D-04 Max=9.74D-03 NDo=     1
 LinEq1:  Iter=  2 NonCon=     1 RMS=1.61D-04 Max=4.14D-03 NDo=     1
 LinEq1:  Iter=  3 NonCon=     1 RMS=4.31D-05 Max=5.08D-04 NDo=     1
 LinEq1:  Iter=  4 NonCon=     1 RMS=1.99D-05 Max=8.55D-04 NDo=     1
 LinEq1:  Iter=  5 NonCon=     1 RMS=5.06D-06 Max=8.26D-05 NDo=     1
 LinEq1:  Iter=  6 NonCon=     1 RMS=1.63D-06 Max=2.68D-05 NDo=     1
 LinEq1:  Iter=  7 NonCon=     1 RMS=4.13D-07 Max=4.18D-06 NDo=     1
 LinEq1:  Iter=  8 NonCon=     1 RMS=1.01D-07 Max=1.86D-06 NDo=     1
 LinEq1:  Iter=  9 NonCon=     1 RMS=2.33D-08 Max=6.32D-07 NDo=     1
 LinEq1:  Iter= 10 NonCon=     1 RMS=6.43D-09 Max=1.62D-07 NDo=     1
 LinEq1:  Iter= 11 NonCon=     1 RMS=1.89D-09 Max=3.64D-08 NDo=     1
 LinEq1:  Iter= 12 NonCon=     1 RMS=4.21D-10 Max=8.69D-09 NDo=     1
 LinEq1:  Iter= 13 NonCon=     1 RMS=1.13D-10 Max=1.04D-09 NDo=     1
 LinEq1:  Iter= 14 NonCon=     1 RMS=4.89D-11 Max=1.83D-09 NDo=     1
 LinEq1:  Iter= 15 NonCon=     0 RMS=1.46D-11 Max=1.98D-10 NDo=     1
 Linear equations converged to 1.000D-10 1.000D-09 after    15 iterations.
 End of Minotr F.D. properties file   721 does not exist.
 End of Minotr F.D. properties file   722 does not exist.
 End of Minotr F.D. properties file   788 does not exist.
 Leave Link 1002 at Fri Sep 17 13:35:48 2021, MaxMem=   524288000 cpu:              20.3 elap:              20.3
 (Enter /opt/gaussian/g16_legacy/l601.exe)
 Copying SCF densities to generalized density rwf, IOpCl= 0 IROHF=0.

 **********************************************************************

            Population analysis using the SCF density.

 **********************************************************************

 Orbital symmetries:
       Occupied  (A) (A) (A) (A) (A) (A) (A) (A) (A) (A) (A) (A)
                 (A) (A) (A) (A) (A) (A) (A) (A) (A) (A) (A) (A)
                 (A) (A) (A) (A) (A) (A) (A) (A) (A) (A) (A) (A)
                 (A) (A) (A)
       Virtual   (A) (A) (A) (A) (A) (A) (A) (A) (A) (A) (A) (A)
                 (A) (A) (A) (A) (A) (A) (A) (A) (A) (A) (A) (A)
                 (A) (A) (A) (A) (A) (A) (A) (A) (A) (A) (A) (A)
                 (A) (A) (A) (A) (A) (A) (A) (A) (A) (A) (A) (A)
                 (A) (A) (A) (A) (A) (A) (A) (A) (A) (A) (A) (A)
                 (A) (A) (A) (A) (A) (A) (A) (A) (A) (A) (A) (A)
                 (A) (A) (A) (A) (A) (A) (A) (A) (A) (A) (A) (A)
                 (A) (A) (A) (A) (A) (A) (A) (A) (A) (A) (A) (A)
                 (A) (A) (A) (A) (A) (A) (A) (A) (A) (A) (A) (A)
                 (A) (A) (A) (A) (A) (A) (A) (A) (A) (A) (A) (A)
                 (A) (A) (A) (A) (A) (A) (A) (A) (A) (A) (A) (A)
                 (A) (A) (A) (A) (A) (A) (A) (A) (A) (A) (A) (A)
                 (A) (A) (A) (A) (A) (A) (A) (A) (A) (A) (A) (A)
                 (A) (A) (A) (A) (A) (A) (A) (A) (A) (A) (A) (A)
                 (A) (A) (A) (A) (A) (A) (A) (A) (A) (A) (A) (A)
                 (A) (A) (A) (A) (A) (A) (A) (A) (A) (A) (A) (A)
                 (A) (A) (A) (A) (A) (A) (A) (A) (A)
 The electronic state is 1-A.
 Alpha  occ. eigenvalues --  -11.23060 -11.22504 -11.22000 -11.21921 -11.21883
 Alpha  occ. eigenvalues --  -11.21649 -11.21553 -11.21484 -11.21456 -11.21437
 Alpha  occ. eigenvalues --   -1.10624  -1.08327  -1.01912  -0.98013  -0.93647
 Alpha  occ. eigenvalues --   -0.91776  -0.86756  -0.82685  -0.70599  -0.69342
 Alpha  occ. eigenvalues --   -0.64584  -0.61545  -0.60102  -0.59031  -0.58087
 Alpha  occ. eigenvalues --   -0.56804  -0.55368  -0.55149  -0.53549  -0.51981
 Alpha  occ. eigenvalues --   -0.51716  -0.51321  -0.50592  -0.49229  -0.48275
 Alpha  occ. eigenvalues --   -0.46013  -0.44272  -0.33356  -0.31526
 Alpha virt. eigenvalues --    0.18456   0.19495   0.22039   0.24453   0.25183
 Alpha virt. eigenvalues --    0.27141   0.28395   0.28931   0.30250   0.30504
 Alpha virt. eigenvalues --    0.31238   0.32117   0.33135   0.33436   0.34032
 Alpha virt. eigenvalues --    0.35678   0.35774   0.36970   0.38998   0.40648
 Alpha virt. eigenvalues --    0.41063   0.42593   0.43321   0.44192   0.45150
 Alpha virt. eigenvalues --    0.51685   0.54046   0.61170   0.62446   0.70139
 Alpha virt. eigenvalues --    0.71102   0.71886   0.74280   0.76417   0.76615
 Alpha virt. eigenvalues --    0.76876   0.78795   0.79455   0.81139   0.82036
 Alpha virt. eigenvalues --    0.83811   0.85655   0.88079   0.91266   0.92026
 Alpha virt. eigenvalues --    0.92896   0.95178   0.97058   0.98263   0.99207
 Alpha virt. eigenvalues --    0.99751   1.00202   1.02303   1.03925   1.06182
 Alpha virt. eigenvalues --    1.07863   1.08639   1.08809   1.11200   1.12390
 Alpha virt. eigenvalues --    1.12560   1.13432   1.14582   1.14926   1.15820
 Alpha virt. eigenvalues --    1.16163   1.16403   1.18225   1.18707   1.20092
 Alpha virt. eigenvalues --    1.20662   1.22066   1.22854   1.25020   1.27543
 Alpha virt. eigenvalues --    1.34172   1.40671   1.41851   1.43741   1.45172
 Alpha virt. eigenvalues --    1.47560   1.53477   1.56257   1.56980   1.58247
 Alpha virt. eigenvalues --    1.59849   1.62720   1.65797   1.69519   1.70791
 Alpha virt. eigenvalues --    1.75331   1.82525   1.92035   1.92195   1.95501
 Alpha virt. eigenvalues --    1.98632   2.01126   2.02849   2.04183   2.08702
 Alpha virt. eigenvalues --    2.09243   2.11121   2.11379   2.13102   2.14503
 Alpha virt. eigenvalues --    2.15428   2.17690   2.19728   2.23579   2.27384
 Alpha virt. eigenvalues --    2.28340   2.29994   2.32201   2.34975   2.35568
 Alpha virt. eigenvalues --    2.35647   2.35783   2.39325   2.39852   2.40351
 Alpha virt. eigenvalues --    2.41285   2.41830   2.43040   2.45162   2.45386
 Alpha virt. eigenvalues --    2.47034   2.48342   2.49335   2.50337   2.54527
 Alpha virt. eigenvalues --    2.56586   2.57722   2.61275   2.62186   2.64354
 Alpha virt. eigenvalues --    2.66341   2.67160   2.72033   2.72993   2.73748
 Alpha virt. eigenvalues --    2.75721   2.77700   2.81091   2.82805   2.85159
 Alpha virt. eigenvalues --    2.87730   2.89155   2.91920   2.93440   2.94437
 Alpha virt. eigenvalues --    2.97095   2.99036   3.01167   3.02603   3.05101
 Alpha virt. eigenvalues --    3.05823   3.06633   3.08508   3.13020   3.15944
 Alpha virt. eigenvalues --    3.17139   3.18166   3.19616   3.20682   3.21266
 Alpha virt. eigenvalues --    3.23193   3.24413   3.26465   3.27244   3.36667
 Alpha virt. eigenvalues --    3.39075   3.44609   3.45619   3.55556   3.57296
 Alpha virt. eigenvalues --    3.58702   3.61059   3.66891   3.73952   3.78201
 Alpha virt. eigenvalues --    3.78871   3.80514   3.81326   3.82334   3.82840
 Alpha virt. eigenvalues --    3.84215   3.85753   3.87656   3.89510   3.91176
 Alpha virt. eigenvalues --    3.95898   4.59096   4.62636   4.74429   4.82817
 Alpha virt. eigenvalues --    4.88836   4.92668   4.93352   5.07550   5.10288
 Alpha virt. eigenvalues --    5.16870
          Condensed to atoms (all electrons):
               1          2          3          4          5          6
     1  C    5.001794   0.412354   0.413508   0.340291  -0.058745  -0.003554
     2  H    0.412354   0.571688  -0.030227  -0.040534   0.003238  -0.000016
     3  H    0.413508  -0.030227   0.588499  -0.045056  -0.004692   0.002571
     4  C    0.340291  -0.040534  -0.045056   4.955040   0.349338  -0.043071
     5  C   -0.058745   0.003238  -0.004692   0.349338   4.896452   0.397375
     6  H   -0.003554  -0.000016   0.002571  -0.043071   0.397375   0.593661
     7  H    0.003675  -0.000103   0.000081  -0.041408   0.406176  -0.027618
     8  H   -0.000529  -0.000030  -0.000276  -0.045802   0.400289  -0.035015
     9  C   -0.044042  -0.002231   0.001918   0.698856  -0.045936  -0.000426
    10  H    0.003079   0.000060  -0.000114  -0.036526  -0.006485   0.000248
    11  C   -0.007063  -0.002134   0.000138  -0.050691   0.003425  -0.000114
    12  H    0.000227   0.000172   0.000028  -0.001412  -0.000116   0.000021
    13  H    0.000232  -0.000034  -0.000010   0.000593  -0.000100  -0.000004
    14  H   -0.001828  -0.001333   0.000004  -0.000418   0.000092  -0.000001
    15  C    0.000597   0.000160  -0.000016  -0.000017  -0.000000  -0.000000
    16  H   -0.000041   0.000014   0.000000   0.000001  -0.000000   0.000000
    17  H    0.000077  -0.000076  -0.000001  -0.000002   0.000000  -0.000000
    18  H   -0.000053  -0.000052  -0.000012  -0.000027  -0.000000  -0.000000
    19  C   -0.003608   0.001046   0.000615   0.000006  -0.000002   0.000000
    20  C   -0.000101  -0.000042  -0.000000   0.000002  -0.000000  -0.000000
    21  H    0.000022  -0.000005  -0.000001  -0.000000   0.000000  -0.000000
    22  H   -0.000004   0.000001   0.000000   0.000000  -0.000000   0.000000
    23  H   -0.000003  -0.000002   0.000002   0.000000  -0.000000  -0.000000
    24  C   -0.063066  -0.000807  -0.000607   0.006130  -0.000158   0.000000
    25  H    0.000004   0.000213   0.001003  -0.000155   0.000010  -0.000002
    26  C    0.326229  -0.039860  -0.044602  -0.057360  -0.000187   0.000027
    27  H   -0.040296  -0.002145   0.004203  -0.001437   0.000317   0.000012
    28  H   -0.045133   0.004291  -0.002605  -0.001851  -0.000392   0.000093
               7          8          9         10         11         12
     1  C    0.003675  -0.000529  -0.044042   0.003079  -0.007063   0.000227
     2  H   -0.000103  -0.000030  -0.002231   0.000060  -0.002134   0.000172
     3  H    0.000081  -0.000276   0.001918  -0.000114   0.000138   0.000028
     4  C   -0.041408  -0.045802   0.698856  -0.036526  -0.050691  -0.001412
     5  C    0.406176   0.400289  -0.045936  -0.006485   0.003425  -0.000116
     6  H   -0.027618  -0.035015  -0.000426   0.000248  -0.000114   0.000021
     7  H    0.571043  -0.028069  -0.002737   0.002221   0.000137  -0.000004
     8  H   -0.028069   0.594722  -0.001034   0.000124  -0.000100  -0.000005
     9  C   -0.002737  -0.001034   4.939952   0.404867   0.337728  -0.044354
    10  H    0.002221   0.000124   0.404867   0.559363  -0.043637  -0.000221
    11  C    0.000137  -0.000100   0.337728  -0.043637   4.906204   0.400032
    12  H   -0.000004  -0.000005  -0.044354  -0.000221   0.400032   0.584237
    13  H   -0.000009   0.000015  -0.042841  -0.002647   0.403006  -0.033280
    14  H    0.000004   0.000000  -0.041940   0.003315   0.408025  -0.026851
    15  C   -0.000000  -0.000000   0.000010  -0.000000  -0.000097   0.000002
    16  H    0.000000   0.000000   0.000000   0.000000   0.000002   0.000000
    17  H   -0.000000   0.000000   0.000000  -0.000000  -0.000003  -0.000000
    18  H    0.000000   0.000000  -0.000032   0.000000   0.000040  -0.000008
    19  C    0.000000   0.000000   0.000001   0.000000   0.000007  -0.000000
    20  C    0.000000  -0.000000  -0.000000   0.000000  -0.000000   0.000000
    21  H   -0.000000   0.000000  -0.000000  -0.000000   0.000000  -0.000000
    22  H    0.000000   0.000000   0.000000   0.000000  -0.000000   0.000000
    23  H    0.000000  -0.000000  -0.000000   0.000000   0.000000  -0.000000
    24  C    0.000003  -0.000086   0.000070   0.000002  -0.000032   0.000002
    25  H   -0.000000   0.000012  -0.000002  -0.000000   0.000000   0.000000
    26  C   -0.000097   0.000810  -0.004368  -0.000116   0.000690  -0.000050
    27  H   -0.000010  -0.000009   0.001215  -0.000044   0.000070   0.000023
    28  H   -0.000025  -0.000187   0.000515   0.000004  -0.000030  -0.000000
              13         14         15         16         17         18
     1  C    0.000232  -0.001828   0.000597  -0.000041   0.000077  -0.000053
     2  H   -0.000034  -0.001333   0.000160   0.000014  -0.000076  -0.000052
     3  H   -0.000010   0.000004  -0.000016   0.000000  -0.000001  -0.000012
     4  C    0.000593  -0.000418  -0.000017   0.000001  -0.000002  -0.000027
     5  C   -0.000100   0.000092  -0.000000  -0.000000   0.000000  -0.000000
     6  H   -0.000004  -0.000001  -0.000000   0.000000  -0.000000  -0.000000
     7  H   -0.000009   0.000004  -0.000000   0.000000  -0.000000   0.000000
     8  H    0.000015   0.000000  -0.000000   0.000000   0.000000   0.000000
     9  C   -0.042841  -0.041940   0.000010   0.000000   0.000000  -0.000032
    10  H   -0.002647   0.003315  -0.000000   0.000000  -0.000000   0.000000
    11  C    0.403006   0.408025  -0.000097   0.000002  -0.000003   0.000040
    12  H   -0.033280  -0.026851   0.000002   0.000000  -0.000000  -0.000008
    13  H    0.586812  -0.030018  -0.000004  -0.000000   0.000000   0.000042
    14  H   -0.030018   0.573882   0.000010  -0.000006   0.000034   0.000570
    15  C   -0.000004   0.000010   4.909234   0.398276   0.402439   0.406146
    16  H   -0.000000  -0.000006   0.398276   0.582511  -0.033099  -0.026271
    17  H    0.000000   0.000034   0.402439  -0.033099   0.586214  -0.030017
    18  H    0.000042   0.000570   0.406146  -0.026271  -0.030017   0.568186
    19  C    0.000000  -0.000013   0.348394  -0.043823  -0.043930  -0.037053
    20  C   -0.000000   0.000000  -0.065377  -0.001683  -0.003430   0.003677
    21  H    0.000000  -0.000000  -0.002141  -0.000371   0.002847  -0.000072
    22  H   -0.000000  -0.000000  -0.001105   0.002553  -0.000507  -0.000023
    23  H   -0.000000  -0.000000   0.003696  -0.000079   0.000010  -0.000108
    24  C   -0.000004   0.000003  -0.043324  -0.000843   0.000449  -0.002869
    25  H    0.000000  -0.000001   0.003365  -0.000126  -0.000110   0.000059
    26  C    0.000091  -0.000212  -0.007535   0.000188   0.000286  -0.001945
    27  H   -0.000079  -0.000251  -0.002065   0.000056  -0.000043  -0.001169
    28  H    0.000000  -0.000008   0.000169   0.000032  -0.000012   0.000031
              19         20         21         22         23         24
     1  C   -0.003608  -0.000101   0.000022  -0.000004  -0.000003  -0.063066
     2  H    0.001046  -0.000042  -0.000005   0.000001  -0.000002  -0.000807
     3  H    0.000615  -0.000000  -0.000001   0.000000   0.000002  -0.000607
     4  C    0.000006   0.000002  -0.000000   0.000000   0.000000   0.006130
     5  C   -0.000002  -0.000000   0.000000  -0.000000  -0.000000  -0.000158
     6  H    0.000000  -0.000000  -0.000000   0.000000  -0.000000   0.000000
     7  H    0.000000   0.000000  -0.000000   0.000000   0.000000   0.000003
     8  H    0.000000  -0.000000   0.000000   0.000000  -0.000000  -0.000086
     9  C    0.000001  -0.000000  -0.000000   0.000000  -0.000000   0.000070
    10  H    0.000000   0.000000  -0.000000   0.000000   0.000000   0.000002
    11  C    0.000007  -0.000000   0.000000  -0.000000   0.000000  -0.000032
    12  H   -0.000000   0.000000  -0.000000   0.000000  -0.000000   0.000002
    13  H    0.000000  -0.000000   0.000000  -0.000000  -0.000000  -0.000004
    14  H   -0.000013   0.000000  -0.000000  -0.000000  -0.000000   0.000003
    15  C    0.348394  -0.065377  -0.002141  -0.001105   0.003696  -0.043324
    16  H   -0.043823  -0.001683  -0.000371   0.002553  -0.000079  -0.000843
    17  H   -0.043930  -0.003430   0.002847  -0.000507   0.000010   0.000449
    18  H   -0.037053   0.003677  -0.000072  -0.000023  -0.000108  -0.002869
    19  C    4.918234   0.352284  -0.044302  -0.045768  -0.040398   0.698176
    20  C    0.352284   4.903222   0.396991   0.399270   0.405431  -0.044860
    21  H   -0.044302   0.396991   0.594307  -0.034901  -0.027371  -0.000546
    22  H   -0.045768   0.399270  -0.034901   0.593049  -0.027560  -0.001136
    23  H   -0.040398   0.405431  -0.027371  -0.027560   0.568023  -0.002387
    24  C    0.698176  -0.044860  -0.000546  -0.001136  -0.002387   4.961493
    25  H   -0.036142  -0.006747   0.000235   0.000150   0.002177   0.402020
    26  C   -0.048267   0.003152  -0.000086  -0.000124   0.000146   0.339925
    27  H    0.000823   0.000071  -0.000004   0.000004   0.000006  -0.043806
    28  H    0.000915  -0.000102  -0.000002   0.000012  -0.000011  -0.043348
              25         26         27         28
     1  C    0.000004   0.326229  -0.040296  -0.045133
     2  H    0.000213  -0.039860  -0.002145   0.004291
     3  H    0.001003  -0.044602   0.004203  -0.002605
     4  C   -0.000155  -0.057360  -0.001437  -0.001851
     5  C    0.000010  -0.000187   0.000317  -0.000392
     6  H   -0.000002   0.000027   0.000012   0.000093
     7  H   -0.000000  -0.000097  -0.000010  -0.000025
     8  H    0.000012   0.000810  -0.000009  -0.000187
     9  C   -0.000002  -0.004368   0.001215   0.000515
    10  H   -0.000000  -0.000116  -0.000044   0.000004
    11  C    0.000000   0.000690   0.000070  -0.000030
    12  H    0.000000  -0.000050   0.000023  -0.000000
    13  H    0.000000   0.000091  -0.000079   0.000000
    14  H   -0.000001  -0.000212  -0.000251  -0.000008
    15  C    0.003365  -0.007535  -0.002065   0.000169
    16  H   -0.000126   0.000188   0.000056   0.000032
    17  H   -0.000110   0.000286  -0.000043  -0.000012
    18  H    0.000059  -0.001945  -0.001169   0.000031
    19  C   -0.036142  -0.048267   0.000823   0.000915
    20  C   -0.006747   0.003152   0.000071  -0.000102
    21  H    0.000235  -0.000086  -0.000004  -0.000002
    22  H    0.000150  -0.000124   0.000004   0.000012
    23  H    0.002177   0.000146   0.000006  -0.000011
    24  C    0.402020   0.339925  -0.043806  -0.043348
    25  H    0.558510  -0.041272   0.003230  -0.003486
    26  C   -0.041272   4.982329   0.414875   0.413772
    27  H    0.003230   0.414875   0.571240  -0.029610
    28  H   -0.003486   0.413772  -0.029610   0.588510
 Mulliken charges:
               1
     1  C   -0.234023
     2  H    0.126395
     3  H    0.115649
     4  C    0.015512
     5  C   -0.339898
     6  H    0.115810
     7  H    0.116737
     8  H    0.115170
     9  C   -0.155190
    10  H    0.116506
    11  C   -0.355603
    12  H    0.121558
    13  H    0.118237
    14  H    0.116941
    15  C   -0.350816
    16  H    0.122711
    17  H    0.118875
    18  H    0.120959
    19  C    0.022806
    20  C   -0.341757
    21  H    0.115402
    22  H    0.116088
    23  H    0.118426
    24  C   -0.160394
    25  H    0.117055
    26  C   -0.236440
    27  H    0.124824
    28  H    0.118459
 Sum of Mulliken charges =  -0.00000
 Mulliken charges with hydrogens summed into heavy atoms:
               1
     1  C    0.008021
     4  C    0.015512
     5  C    0.007820
     9  C   -0.038684
    11  C    0.001133
    15  C    0.011729
    19  C    0.022806
    20  C    0.008159
    24  C   -0.043339
    26  C    0.006843
 Electronic spatial extent (au):  <R**2>=           2423.6374
 Charge=             -0.0000 electrons
 Dipole moment (field-independent basis, Debye):
    X=              0.2952    Y=              0.1262    Z=             -0.0061  Tot=              0.3211
 Quadrupole moment (field-independent basis, Debye-Ang):
   XX=            -64.5115   YY=            -63.6034   ZZ=            -67.0540
   XY=              0.6103   XZ=              0.8624   YZ=             -0.4853
 Traceless Quadrupole moment (field-independent basis, Debye-Ang):
   XX=              0.5448   YY=              1.4529   ZZ=             -1.9977
   XY=              0.6103   XZ=              0.8624   YZ=             -0.4853
 Octapole moment (field-independent basis, Debye-Ang**2):
  XXX=              1.3743  YYY=             -2.7199  ZZZ=              0.1842  XYY=             -0.5698
  XXY=              4.5362  XXZ=             -2.6534  XZZ=              1.5769  YZZ=              1.2276
  YYZ=              1.3698  XYZ=             -0.7530
 Hexadecapole moment (field-independent basis, Debye-Ang**3):
 XXXX=          -2492.2605 YYYY=           -696.0990 ZZZZ=           -174.8263 XXXY=             -2.3492
 XXXZ=             11.9246 YYYX=             -9.3573 YYYZ=             -3.0492 ZZZX=             -0.8370
 ZZZY=             -0.0644 XXYY=           -530.4640 XXZZ=           -456.3110 YYZZ=           -139.1706
 XXYZ=             -4.2431 YYXZ=              3.1977 ZZXY=              4.6979
 N-N= 5.164376681920D+02 E-N=-1.937509457244D+03  KE= 3.886262968538D+02
 No NMR shielding tensors so no spin-rotation constants.
 Leave Link  601 at Fri Sep 17 13:35:49 2021, MaxMem=   524288000 cpu:               0.2 elap:               1.0
 (Enter /opt/gaussian/g16_legacy/l701.exe)
 ... and contract with generalized density number  2.
 Compute integral first derivatives.
 Leave Link  701 at Fri Sep 17 13:35:51 2021, MaxMem=   524288000 cpu:               0.2 elap:               0.8
 (Enter /opt/gaussian/g16_legacy/l702.exe)
 L702 exits ... SP integral derivatives will be done elsewhere.
 Leave Link  702 at Fri Sep 17 13:35:51 2021, MaxMem=   524288000 cpu:               0.0 elap:               0.1
 (Enter /opt/gaussian/g16_legacy/l703.exe)
 Integral derivatives from FoFJK, PRISM(SPDF).
 Compute integral first derivatives, UseDBF=F ICtDFT=           0.
 Calling FoFJK, ICntrl=  10002127 FMM=F ISym2X=0 I1Cent= 0 IOpClX= 0 NMat=1 NMatS=1 NMatT=0.
 FoFJK:  IHMeth= 1 ICntrl=10002127 DoSepK=F KAlg= 0 I1Cent=           0 FoldK=F
 IRaf=         0 NMat=       1 IRICut=       1 DoRegI=T DoRafI=F ISym2E= 0 IDoP0=0 IntGTp=1.
 FoFCou: FMM=F IPFlag=           0 FMFlag=      100000 FMFlg1=         800
         NFxFlg=           0 DoJE=F BraDBF=F KetDBF=F FulRan=T
         wScrn=  0.000000 ICntrl=  10002127 IOpCl=  0 I1Cent=           0 NGrid=           0
         NMat0=    1 NMatS0=      1 NMatT0=    0 NMatD0=    1 NMtDS0=    0 NMtDT0=    0
 Symmetry not used in FoFCou.
 Leave Link  703 at Fri Sep 17 13:36:10 2021, MaxMem=   524288000 cpu:              18.7 elap:              19.3
 (Enter /opt/gaussian/g16_legacy/l716.exe)
 Dipole        = 9.12308641D-02 6.68963121D-02-4.82296270D-03
 ***** Axes restored to original set *****
 -------------------------------------------------------------------
 Center     Atomic                   Forces (Hartrees/Bohr)
 Number     Number              X              Y              Z
 -------------------------------------------------------------------
      1        6           0.001682806    0.001178010    0.009290710
      2        1           0.003303514   -0.001237715   -0.003062922
      3        1           0.002852520   -0.002178150   -0.001300618
      4        6          -0.001124125    0.005209704    0.003642620
      5        6           0.002657113    0.000498207    0.001695973
      6        1           0.001665665   -0.001394943   -0.002598246
      7        1          -0.002898681   -0.002563424   -0.001385924
      8        1          -0.001950187    0.002590569    0.000818892
      9        6           0.000976187   -0.000441315   -0.003561738
     10        1          -0.001506538    0.001075156   -0.003084862
     11        6          -0.001251468   -0.002369723    0.000049124
     12        1           0.000746760   -0.003274494   -0.000679434
     13        1          -0.002804997    0.001093339    0.001711275
     14        1           0.001361650    0.002803326    0.001160200
     15        6           0.003391436    0.000676414    0.003013546
     16        1          -0.002126693   -0.000272323    0.002275727
     17        1           0.001516494   -0.000712638   -0.003261387
     18        1          -0.001233424    0.000665494   -0.003186049
     19        6          -0.002440524    0.004713003   -0.000174291
     20        6          -0.000967700    0.003027850   -0.001225664
     21        1           0.001326752   -0.002023343   -0.002582584
     22        1          -0.002462524    0.000109934    0.002252245
     23        1           0.002394870   -0.002251020    0.002811758
     24        6           0.004753377   -0.000209344   -0.002184743
     25        1          -0.001603334   -0.002901134    0.000771704
     26        6          -0.002424222   -0.004315775   -0.006209142
     27        1          -0.002913675    0.002176902    0.001741486
     28        1          -0.000921052    0.000327431    0.003262344
 -------------------------------------------------------------------
 Cartesian Forces:  Max     0.009290710 RMS     0.002571755
 Leave Link  716 at Fri Sep 17 13:36:11 2021, MaxMem=   524288000 cpu:               0.1 elap:               0.4
 (Enter /opt/gaussian/g16_legacy/l103.exe)

 GradGradGradGradGradGradGradGradGradGradGradGradGradGradGradGradGradGrad
 Berny optimization.
 FormGI is forming the generalized inverse of G from B-inverse, IUseBI=4.
 GSVD:  received Info=                   1 from GESDD.
 Internal  Forces:  Max     0.004893088 RMS     0.001915818
 Search for a local minimum.
 Step number   1 out of a maximum of  138
 All quantities printed in internal units (Hartrees-Bohrs-Radians)
 RMS Force = .19158D-02 SwitMx=.10000D-02 MixMth= 1
 Mixed Optimization -- RFO/linear search
 Second derivative matrix not updated -- first step.
 ITU=  0
     Eigenvalues ---    0.00343   0.00570   0.00670   0.00680   0.00693
     Eigenvalues ---    0.00714   0.00818   0.01219   0.01286   0.01569
     Eigenvalues ---    0.01641   0.02780   0.02784   0.04018   0.04138
     Eigenvalues ---    0.05349   0.05399   0.06978   0.07035   0.07090
     Eigenvalues ---    0.07093   0.07269   0.07301   0.07347   0.07505
     Eigenvalues ---    0.09278   0.09362   0.12767   0.12843   0.15999
     Eigenvalues ---    0.15999   0.16000   0.16000   0.16000   0.16000
     Eigenvalues ---    0.16000   0.16000   0.16000   0.16000   0.16000
     Eigenvalues ---    0.16000   0.16000   0.16000   0.21859   0.21866
     Eigenvalues ---    0.22000   0.22000   0.24994   0.24997   0.24998
     Eigenvalues ---    0.24999   0.29244   0.30869   0.31629   0.31707
     Eigenvalues ---    0.31803   0.31967   0.32790   0.33864   0.33970
     Eigenvalues ---    0.34065   0.34194   0.34221   0.34233   0.34246
     Eigenvalues ---    0.34247   0.34249   0.34254   0.34259   0.34269
     Eigenvalues ---    0.34306   0.34339   0.34545   0.34562   0.34802
     Eigenvalues ---    0.34842   0.55509   0.55576
 RFO step:  Lambda=-2.95706594D-03 EMin= 3.43315081D-03
 Linear search not attempted -- first point.
 Iteration  1 RMS(Cart)=  0.03968948 RMS(Int)=  0.00072309
 Iteration  2 RMS(Cart)=  0.00093463 RMS(Int)=  0.00016600
 Iteration  3 RMS(Cart)=  0.00000043 RMS(Int)=  0.00016600
 ITry= 1 IFail=0 DXMaxC= 1.51D-01 DCOld= 1.00D+10 DXMaxT= 3.00D-01 DXLimC= 3.00D+00 Rises=F
 Variable       Old X    -DE/DX   Delta X   Delta X   Delta X     New X
                                 (Linear)    (Quad)   (Total)
    R1        2.07221  -0.00330   0.00000  -0.00961  -0.00961   2.06260
    R2        2.07561  -0.00280   0.00000  -0.00819  -0.00819   2.06742
    R3        2.86264  -0.00354   0.00000  -0.01136  -0.01136   2.85128
    R4        2.89497   0.00175   0.00000   0.00593   0.00593   2.90089
    R5        2.84827  -0.00047   0.00000  -0.00147  -0.00147   2.84681
    R6        2.54682  -0.00390   0.00000  -0.00700  -0.00700   2.53983
    R7        2.06912  -0.00216   0.00000  -0.00626  -0.00626   2.06286
    R8        2.06959  -0.00372   0.00000  -0.01077  -0.01077   2.05882
    R9        2.06818  -0.00174   0.00000  -0.00503  -0.00503   2.06314
   R10        2.05932  -0.00225   0.00000  -0.00641  -0.00641   2.05291
   R11        2.82721   0.00308   0.00000   0.00931   0.00931   2.83652
   R12        2.06761  -0.00155   0.00000  -0.00448  -0.00448   2.06313
   R13        2.06895  -0.00261   0.00000  -0.00754  -0.00754   2.06141
   R14        2.06392  -0.00286   0.00000  -0.00820  -0.00820   2.05572
   R15        2.06878  -0.00184   0.00000  -0.00533  -0.00533   2.06345
   R16        2.07003  -0.00264   0.00000  -0.00765  -0.00765   2.06238
   R17        2.06421  -0.00285   0.00000  -0.00819  -0.00819   2.05602
   R18        2.84204  -0.00050   0.00000  -0.00156  -0.00156   2.84048
   R19        2.84683  -0.00077   0.00000  -0.00240  -0.00240   2.84442
   R20        2.54624  -0.00325   0.00000  -0.00581  -0.00581   2.54043
   R21        2.06917  -0.00201   0.00000  -0.00581  -0.00581   2.06336
   R22        2.06904  -0.00196   0.00000  -0.00568  -0.00568   2.06336
   R23        2.06939  -0.00393   0.00000  -0.01139  -0.01139   2.05800
   R24        2.05997  -0.00195   0.00000  -0.00555  -0.00555   2.05442
   R25        2.84506  -0.00151   0.00000  -0.00470  -0.00470   2.84036
   R26        2.06915  -0.00277   0.00000  -0.00802  -0.00802   2.06114
   R27        2.07380  -0.00239   0.00000  -0.00696  -0.00696   2.06684
    A1        1.82995   0.00206   0.00000   0.02243   0.02226   1.85222
    A2        1.93009   0.00043   0.00000   0.00930   0.00934   1.93943
    A3        1.91835  -0.00277   0.00000  -0.02019  -0.02023   1.89812
    A4        1.90261  -0.00069   0.00000  -0.00271  -0.00270   1.89991
    A5        1.92007  -0.00194   0.00000  -0.01724  -0.01727   1.90280
    A6        1.95841   0.00283   0.00000   0.00908   0.00912   1.96753
    A7        2.00829   0.00237   0.00000   0.00967   0.00910   2.01739
    A8        2.17076  -0.00489   0.00000  -0.01898  -0.01951   2.15125
    A9        2.10395   0.00254   0.00000   0.01041   0.00984   2.11379
   A10        1.92473   0.00166   0.00000   0.00907   0.00909   1.93382
   A11        1.95927  -0.00262   0.00000  -0.01311  -0.01308   1.94619
   A12        1.92812   0.00227   0.00000   0.01209   0.01212   1.94024
   A13        1.87746   0.00110   0.00000   0.01027   0.01030   1.88776
   A14        1.89494  -0.00307   0.00000  -0.02469  -0.02468   1.87026
   A15        1.87716   0.00054   0.00000   0.00553   0.00556   1.88272
   A16        2.06975  -0.00195   0.00000  -0.01342  -0.01344   2.05631
   A17        2.22510  -0.00187   0.00000  -0.00835  -0.00837   2.21672
   A18        1.98820   0.00382   0.00000   0.02195   0.02193   2.01013
   A19        1.91724   0.00395   0.00000   0.02329   0.02326   1.94050
   A20        1.91000   0.00238   0.00000   0.01560   0.01555   1.92554
   A21        1.98123  -0.00299   0.00000  -0.01842  -0.01833   1.96290
   A22        1.88713  -0.00309   0.00000  -0.01883  -0.01901   1.86812
   A23        1.89295  -0.00096   0.00000  -0.00767  -0.00758   1.88538
   A24        1.87266   0.00053   0.00000   0.00496   0.00503   1.87769
   A25        1.89067  -0.00240   0.00000  -0.02161  -0.02159   1.86909
   A26        1.88448   0.00023   0.00000   0.00323   0.00325   1.88773
   A27        1.92162   0.00230   0.00000   0.01167   0.01169   1.93331
   A28        1.86364   0.00201   0.00000   0.01703   0.01704   1.88068
   A29        1.92077   0.00000   0.00000  -0.00085  -0.00084   1.91993
   A30        1.97976  -0.00223   0.00000  -0.01025  -0.01023   1.96953
   A31        1.99469   0.00146   0.00000   0.00581   0.00579   2.00047
   A32        2.18262  -0.00328   0.00000  -0.01294  -0.01297   2.16965
   A33        2.10583   0.00182   0.00000   0.00725   0.00723   2.11306
   A34        1.92492   0.00220   0.00000   0.01234   0.01236   1.93728
   A35        1.92344   0.00175   0.00000   0.00878   0.00880   1.93224
   A36        1.96054  -0.00276   0.00000  -0.01379  -0.01375   1.94679
   A37        1.89486  -0.00313   0.00000  -0.02541  -0.02541   1.86946
   A38        1.87916   0.00092   0.00000   0.00938   0.00941   1.88858
   A39        1.87890   0.00091   0.00000   0.00787   0.00790   1.88680
   A40        2.06716  -0.00167   0.00000  -0.01183  -0.01223   2.05492
   A41        2.22712  -0.00225   0.00000  -0.00992  -0.01033   2.21679
   A42        1.98878   0.00394   0.00000   0.02254   0.02212   2.01090
   A43        1.94451   0.00331   0.00000   0.01364   0.01366   1.95818
   A44        1.92602  -0.00263   0.00000  -0.02490  -0.02496   1.90105
   A45        1.92092  -0.00239   0.00000  -0.01478  -0.01498   1.90595
   A46        1.94665  -0.00053   0.00000  -0.00248  -0.00243   1.94422
   A47        1.88063   0.00061   0.00000   0.01704   0.01709   1.89772
   A48        1.84177   0.00155   0.00000   0.01200   0.01174   1.85351
    D1       -2.64278  -0.00174   0.00000  -0.05209  -0.05188  -2.69465
    D2        0.47844  -0.00076   0.00000   0.01006   0.00983   0.48827
    D3       -0.63969   0.00059   0.00000  -0.02152  -0.02128  -0.66096
    D4        2.48153   0.00156   0.00000   0.04063   0.04043   2.52195
[...]
                 (A) (A) (A) (A) (A) (A) (A) (A) (A) (A) (A) (A)
                 (A) (A) (A) (A) (A) (A) (A) (A) (A) (A) (A) (A)
                 (A) (A) (A) (A) (A) (A) (A) (A) (A) (A) (A) (A)
                 (A) (A) (A) (A) (A) (A) (A) (A) (A) (A) (A) (A)
                 (A) (A) (A) (A) (A) (A) (A) (A) (A) (A) (A) (A)
                 (A) (A) (A) (A) (A) (A) (A) (A) (A) (A) (A) (A)
                 (A) (A) (A) (A) (A) (A) (A) (A) (A) (A) (A) (A)
                 (A) (A) (A) (A) (A) (A) (A) (A) (A) (A) (A) (A)
                 (A) (A) (A) (A) (A) (A) (A) (A) (A) (A) (A) (A)
                 (A) (A) (A) (A) (A) (A) (A) (A) (A)
 The electronic state is 1-A.
 Alpha  occ. eigenvalues --  -11.23020 -11.22460 -11.21868 -11.21730 -11.21712
 Alpha  occ. eigenvalues --  -11.21539 -11.21506 -11.21436 -11.21417 -11.21348
 Alpha  occ. eigenvalues --   -1.10821  -1.08492  -1.01823  -0.98143  -0.93838
 Alpha  occ. eigenvalues --   -0.91939  -0.86963  -0.82855  -0.70494  -0.69519
 Alpha  occ. eigenvalues --   -0.64988  -0.61512  -0.60591  -0.58878  -0.58366
 Alpha  occ. eigenvalues --   -0.56774  -0.55298  -0.54966  -0.53295  -0.52261
 Alpha  occ. eigenvalues --   -0.51859  -0.51173  -0.50832  -0.49581  -0.48519
 Alpha  occ. eigenvalues --   -0.46073  -0.44624  -0.33371  -0.31514
 Alpha virt. eigenvalues --    0.18142   0.19779   0.22152   0.24486   0.25192
 Alpha virt. eigenvalues --    0.27439   0.28535   0.28922   0.30318   0.30811
 Alpha virt. eigenvalues --    0.31477   0.32261   0.33202   0.33794   0.34383
 Alpha virt. eigenvalues --    0.35458   0.36114   0.36962   0.39185   0.40602
 Alpha virt. eigenvalues --    0.41328   0.42631   0.43685   0.44253   0.45395
 Alpha virt. eigenvalues --    0.51702   0.54378   0.61070   0.62576   0.70520
 Alpha virt. eigenvalues --    0.71073   0.72196   0.73768   0.76075   0.76177
 Alpha virt. eigenvalues --    0.76620   0.79010   0.79474   0.81070   0.82306
 Alpha virt. eigenvalues --    0.83713   0.85579   0.89117   0.91091   0.91343
 Alpha virt. eigenvalues --    0.92820   0.94745   0.97065   0.98284   0.98818
 Alpha virt. eigenvalues --    0.99710   1.00468   1.01911   1.03844   1.06577
 Alpha virt. eigenvalues --    1.08019   1.08221   1.09393   1.11664   1.12687
 Alpha virt. eigenvalues --    1.13026   1.13870   1.14856   1.15402   1.16045
 Alpha virt. eigenvalues --    1.16257   1.16619   1.18722   1.19116   1.20671
 Alpha virt. eigenvalues --    1.20953   1.23032   1.23885   1.25765   1.28153
 Alpha virt. eigenvalues --    1.34331   1.41723   1.42153   1.44890   1.46395
 Alpha virt. eigenvalues --    1.48456   1.54136   1.55360   1.57256   1.58165
 Alpha virt. eigenvalues --    1.61459   1.63397   1.66485   1.69046   1.69645
 Alpha virt. eigenvalues --    1.73917   1.82243   1.91111   1.93363   1.96231
 Alpha virt. eigenvalues --    1.98688   2.01467   2.02277   2.03942   2.08565
 Alpha virt. eigenvalues --    2.09706   2.10748   2.11744   2.13037   2.14903
 Alpha virt. eigenvalues --    2.15780   2.16940   2.19854   2.23666   2.28347
 Alpha virt. eigenvalues --    2.29590   2.30325   2.33235   2.35347   2.35688
 Alpha virt. eigenvalues --    2.35978   2.36098   2.38923   2.40264   2.41259
 Alpha virt. eigenvalues --    2.42195   2.43169   2.44154   2.45371   2.46084
 Alpha virt. eigenvalues --    2.47201   2.49167   2.49622   2.51174   2.54099
 Alpha virt. eigenvalues --    2.57315   2.58365   2.61888   2.63241   2.64107
 Alpha virt. eigenvalues --    2.67127   2.68175   2.71776   2.73352   2.73474
 Alpha virt. eigenvalues --    2.75815   2.77410   2.80796   2.82634   2.85354
 Alpha virt. eigenvalues --    2.87137   2.89441   2.92178   2.93739   2.94867
 Alpha virt. eigenvalues --    2.97869   2.99094   3.00960   3.02677   3.05807
 Alpha virt. eigenvalues --    3.06402   3.07703   3.09315   3.13762   3.17093
 Alpha virt. eigenvalues --    3.17589   3.19238   3.20046   3.21242   3.22334
 Alpha virt. eigenvalues --    3.24167   3.25050   3.26607   3.27420   3.37866
 Alpha virt. eigenvalues --    3.40355   3.46023   3.46902   3.56200   3.58183
 Alpha virt. eigenvalues --    3.59499   3.62406   3.67928   3.75494   3.78622
 Alpha virt. eigenvalues --    3.80005   3.81570   3.82569   3.83286   3.83898
 Alpha virt. eigenvalues --    3.84750   3.86481   3.87645   3.89820   3.91558
 Alpha virt. eigenvalues --    3.97645   4.59389   4.63170   4.74472   4.82572
 Alpha virt. eigenvalues --    4.88928   4.92582   4.93409   5.07840   5.10766
 Alpha virt. eigenvalues --    5.17766
          Condensed to atoms (all electrons):
               1          2          3          4          5          6
     1  C    5.004768   0.411714   0.414473   0.337355  -0.056085  -0.003698
     2  H    0.411714   0.572983  -0.028296  -0.038988   0.003071  -0.000034
     3  H    0.414473  -0.028296   0.587507  -0.046308  -0.004587   0.002378
     4  C    0.337355  -0.038988  -0.046308   4.952603   0.351934  -0.041506
     5  C   -0.056085   0.003071  -0.004587   0.351934   4.891804   0.397495
     6  H   -0.003698  -0.000034   0.002378  -0.041506   0.397495   0.591921
     7  H    0.003801  -0.000108   0.000106  -0.042765   0.407087  -0.026764
     8  H    0.000011  -0.000005  -0.000489  -0.045679   0.400946  -0.037541
     9  C   -0.047991  -0.001860   0.002531   0.697840  -0.046054  -0.000373
    10  H    0.003272   0.000031  -0.000118  -0.037842  -0.006525   0.000216
    11  C   -0.007749  -0.002811   0.000160  -0.050271   0.003364  -0.000105
    12  H    0.000152   0.000184   0.000017  -0.000627  -0.000106   0.000017
    13  H    0.000310  -0.000067  -0.000013  -0.000247  -0.000095  -0.000004
    14  H   -0.001745  -0.001657   0.000030  -0.000691   0.000109   0.000002
    15  C    0.000587   0.000200  -0.000015  -0.000018  -0.000000   0.000000
    16  H   -0.000040   0.000022   0.000000   0.000001  -0.000000   0.000000
    17  H    0.000130  -0.000135  -0.000002  -0.000005   0.000000  -0.000000
    18  H   -0.000302  -0.000131  -0.000016  -0.000011  -0.000000  -0.000000
    19  C   -0.004325   0.001388   0.000787   0.000041  -0.000003   0.000000
    20  C   -0.000099  -0.000043  -0.000004   0.000001  -0.000000  -0.000000
    21  H    0.000024  -0.000007  -0.000002  -0.000000   0.000000  -0.000000
    22  H   -0.000005   0.000002   0.000000   0.000000  -0.000000   0.000000
    23  H   -0.000003  -0.000002   0.000003   0.000000  -0.000000  -0.000000
    24  C   -0.061827  -0.000504  -0.000900   0.006443  -0.000149   0.000004
    25  H    0.000175   0.000111   0.001011  -0.000152   0.000010  -0.000001
    26  C    0.332330  -0.041801  -0.046074  -0.055544  -0.000661   0.000086
    27  H   -0.042369  -0.003118   0.004477  -0.001813   0.000243   0.000006
    28  H   -0.046841   0.004515  -0.001931  -0.002075  -0.000289   0.000058
               7          8          9         10         11         12
     1  C    0.003801   0.000011  -0.047991   0.003272  -0.007749   0.000152
     2  H   -0.000108  -0.000005  -0.001860   0.000031  -0.002811   0.000184
     3  H    0.000106  -0.000489   0.002531  -0.000118   0.000160   0.000017
     4  C   -0.042765  -0.045679   0.697840  -0.037842  -0.050271  -0.000627
     5  C    0.407087   0.400946  -0.046054  -0.006525   0.003364  -0.000106
     6  H   -0.026764  -0.037541  -0.000373   0.000216  -0.000105   0.000017
     7  H    0.568858  -0.027466  -0.002890   0.002385   0.000132  -0.000006
     8  H   -0.027466   0.596034  -0.001011   0.000135  -0.000101  -0.000004
     9  C   -0.002890  -0.001011   4.938971   0.404494   0.340494  -0.041523
    10  H    0.002385   0.000135   0.404494   0.558671  -0.041279  -0.001122
    11  C    0.000132  -0.000101   0.340494  -0.041279   4.900974   0.401144
    12  H   -0.000006  -0.000004  -0.041523  -0.001122   0.401144   0.583648
    13  H   -0.000006   0.000017  -0.041805  -0.001264   0.402169  -0.035462
    14  H    0.000005  -0.000003  -0.043903   0.003299   0.409079  -0.027132
    15  C   -0.000000  -0.000000   0.000015  -0.000000  -0.000147   0.000004
    16  H    0.000000  -0.000000   0.000000   0.000000   0.000003   0.000000
    17  H   -0.000000   0.000000   0.000000  -0.000000  -0.000009  -0.000000
    18  H    0.000000   0.000000  -0.000045   0.000000   0.000074  -0.000013
    19  C    0.000000   0.000000  -0.000001   0.000000   0.000013  -0.000000
    20  C    0.000000  -0.000000  -0.000000   0.000000  -0.000000   0.000000
    21  H   -0.000000   0.000000   0.000000  -0.000000  -0.000000  -0.000000
    22  H    0.000000   0.000000   0.000000   0.000000   0.000000   0.000000
    23  H    0.000000  -0.000000  -0.000000   0.000000   0.000000  -0.000000
    24  C    0.000004  -0.000111   0.000114   0.000002  -0.000031   0.000002
    25  H   -0.000000   0.000015  -0.000002  -0.000000   0.000000   0.000000
    26  C   -0.000109   0.000609  -0.004911  -0.000113   0.000577  -0.000037
    27  H   -0.000005  -0.000015   0.001406  -0.000046  -0.000082   0.000037
    28  H   -0.000050   0.000197   0.000760   0.000001  -0.000033  -0.000000
              13         14         15         16         17         18
     1  C    0.000310  -0.001745   0.000587  -0.000040   0.000130  -0.000302
     2  H   -0.000067  -0.001657   0.000200   0.000022  -0.000135  -0.000131
     3  H   -0.000013   0.000030  -0.000015   0.000000  -0.000002  -0.000016
     4  C   -0.000247  -0.000691  -0.000018   0.000001  -0.000005  -0.000011
     5  C   -0.000095   0.000109  -0.000000  -0.000000   0.000000  -0.000000
     6  H   -0.000004   0.000002   0.000000   0.000000  -0.000000  -0.000000
     7  H   -0.000006   0.000005  -0.000000   0.000000  -0.000000   0.000000
     8  H    0.000017  -0.000003  -0.000000  -0.000000   0.000000   0.000000
     9  C   -0.041805  -0.043903   0.000015   0.000000   0.000000  -0.000045
    10  H   -0.001264   0.003299  -0.000000   0.000000  -0.000000   0.000000
    11  C    0.402169   0.409079  -0.000147   0.000003  -0.000009   0.000074
    12  H   -0.035462  -0.027132   0.000004   0.000000  -0.000000  -0.000013
    13  H    0.586720  -0.029956  -0.000015  -0.000000   0.000000   0.000114
    14  H   -0.029956   0.577164  -0.000000  -0.000008   0.000079   0.000412
    15  C   -0.000015  -0.000000   4.907254   0.399852   0.401208   0.407154
    16  H   -0.000000  -0.000008   0.399852   0.584669  -0.035759  -0.026060
    17  H    0.000000   0.000079   0.401208  -0.035759   0.587442  -0.028659
    18  H    0.000114   0.000412   0.407154  -0.026060  -0.028659   0.568221
    19  C    0.000001  -0.000026   0.350333  -0.043537  -0.043385  -0.037848
    20  C   -0.000000   0.000000  -0.064931  -0.002223  -0.002632   0.003725
    21  H    0.000000  -0.000000  -0.001975  -0.000456   0.002756  -0.000068
    22  H   -0.000000  -0.000000  -0.001201   0.002766  -0.000476  -0.000031
    23  H   -0.000000  -0.000000   0.003785  -0.000053  -0.000032  -0.000113
    24  C   -0.000009   0.000026  -0.044248  -0.000365  -0.000031  -0.003253
    25  H    0.000000  -0.000002   0.003528  -0.000121  -0.000121   0.000061
    26  C    0.000163  -0.000737  -0.008144   0.000117   0.000367  -0.002069
    27  H   -0.000140  -0.000475  -0.002693   0.000113  -0.000076  -0.001675
    28  H   -0.000000  -0.000010   0.000195   0.000021  -0.000014   0.000058
              19         20         21         22         23         24
     1  C   -0.004325  -0.000099   0.000024  -0.000005  -0.000003  -0.061827
     2  H    0.001388  -0.000043  -0.000007   0.000002  -0.000002  -0.000504
     3  H    0.000787  -0.000004  -0.000002   0.000000   0.000003  -0.000900
     4  C    0.000041   0.000001  -0.000000   0.000000   0.000000   0.006443
     5  C   -0.000003  -0.000000   0.000000  -0.000000  -0.000000  -0.000149
     6  H    0.000000  -0.000000  -0.000000   0.000000  -0.000000   0.000004
     7  H    0.000000   0.000000  -0.000000   0.000000   0.000000   0.000004
     8  H    0.000000  -0.000000   0.000000   0.000000  -0.000000  -0.000111
     9  C   -0.000001  -0.000000   0.000000   0.000000  -0.000000   0.000114
    10  H    0.000000   0.000000  -0.000000   0.000000   0.000000   0.000002
    11  C    0.000013  -0.000000  -0.000000   0.000000   0.000000  -0.000031
    12  H   -0.000000   0.000000  -0.000000   0.000000  -0.000000   0.000002
    13  H    0.000001  -0.000000   0.000000  -0.000000  -0.000000  -0.000009
    14  H   -0.000026   0.000000  -0.000000  -0.000000  -0.000000   0.000026
    15  C    0.350333  -0.064931  -0.001975  -0.001201   0.003785  -0.044248
    16  H   -0.043537  -0.002223  -0.000456   0.002766  -0.000053  -0.000365
    17  H   -0.043385  -0.002632   0.002756  -0.000476  -0.000032  -0.000031
    18  H   -0.037848   0.003725  -0.000068  -0.000031  -0.000113  -0.003253
    19  C    4.914192   0.353753  -0.043899  -0.044274  -0.041639   0.697734
    20  C    0.353753   4.900112   0.398238   0.398811   0.406218  -0.044415
    21  H   -0.043899   0.398238   0.594542  -0.037806  -0.026703  -0.000422
    22  H   -0.044274   0.398811  -0.037806   0.593607  -0.026549  -0.001270
    23  H   -0.041639   0.406218  -0.026703  -0.026549   0.566018  -0.002632
    24  C    0.697734  -0.044415  -0.000422  -0.001270  -0.002632   4.962747
    25  H   -0.038449  -0.006963   0.000182   0.000187   0.002335   0.403391
    26  C   -0.050100   0.003126  -0.000068  -0.000131   0.000148   0.338699
    27  H    0.000438   0.000051  -0.000005   0.000007   0.000007  -0.044060
    28  H    0.001583  -0.000094  -0.000002   0.000009  -0.000010  -0.041395
              25         26         27         28
     1  C    0.000175   0.332330  -0.042369  -0.046841
     2  H    0.000111  -0.041801  -0.003118   0.004515
     3  H    0.001011  -0.046074   0.004477  -0.001931
     4  C   -0.000152  -0.055544  -0.001813  -0.002075
     5  C    0.000010  -0.000661   0.000243  -0.000289
     6  H   -0.000001   0.000086   0.000006   0.000058
     7  H   -0.000000  -0.000109  -0.000005  -0.000050
     8  H    0.000015   0.000609  -0.000015   0.000197
     9  C   -0.000002  -0.004911   0.001406   0.000760
    10  H   -0.000000  -0.000113  -0.000046   0.000001
    11  C    0.000000   0.000577  -0.000082  -0.000033
    12  H    0.000000  -0.000037   0.000037  -0.000000
    13  H    0.000000   0.000163  -0.000140  -0.000000
    14  H   -0.000002  -0.000737  -0.000475  -0.000010
    15  C    0.003528  -0.008144  -0.002693   0.000195
    16  H   -0.000121   0.000117   0.000113   0.000021
    17  H   -0.000121   0.000367  -0.000076  -0.000014
    18  H    0.000061  -0.002069  -0.001675   0.000058
    19  C   -0.038449  -0.050100   0.000438   0.001583
    20  C   -0.006963   0.003126   0.000051  -0.000094
    21  H    0.000182  -0.000068  -0.000005  -0.000002
    22  H    0.000187  -0.000131   0.000007   0.000009
    23  H    0.002335   0.000148   0.000007  -0.000010
    24  C    0.403391   0.338699  -0.044060  -0.041395
    25  H    0.557389  -0.039113   0.003152  -0.003424
    26  C   -0.039113   4.979543   0.415850   0.413482
    27  H    0.003152   0.415850   0.575347  -0.028362
    28  H   -0.003424   0.413482  -0.028362   0.585267
 Mulliken charges:
               1
     1  C   -0.236021
     2  H    0.125346
     3  H    0.115272
     4  C    0.018322
     5  C   -0.341505
     6  H    0.117845
     7  H    0.117792
     8  H    0.114461
     9  C   -0.154256
    10  H    0.115801
    11  C   -0.355567
    12  H    0.120829
    13  H    0.119588
    14  H    0.116140
    15  C   -0.350727
    16  H    0.121058
    17  H    0.119352
    18  H    0.120474
    19  C    0.027221
    20  C   -0.342631
    21  H    0.115672
    22  H    0.116356
    23  H    0.119222
    24  C   -0.163542
    25  H    0.116803
    26  C   -0.235486
    27  H    0.123802
    28  H    0.118380
 Sum of Mulliken charges =  -0.00000
 Mulliken charges with hydrogens summed into heavy atoms:
               1
     1  C    0.004596
     4  C    0.018322
     5  C    0.008593
     9  C   -0.038454
    11  C    0.000991
    15  C    0.010156
    19  C    0.027221
    20  C    0.008618
    24  C   -0.046740
    26  C    0.006696
 Electronic spatial extent (au):  <R**2>=           2384.0071
 Charge=             -0.0000 electrons
 Dipole moment (field-independent basis, Debye):
    X=              0.3027    Y=              0.1253    Z=              0.0460  Tot=              0.3308
 Quadrupole moment (field-independent basis, Debye-Ang):
   XX=            -64.3023   YY=            -63.2901   ZZ=            -67.3956
   XY=              0.7521   XZ=              1.2367   YZ=             -0.3487
 Traceless Quadrupole moment (field-independent basis, Debye-Ang):
   XX=              0.6937   YY=              1.7059   ZZ=             -2.3996
   XY=              0.7521   XZ=              1.2367   YZ=             -0.3487
 Octapole moment (field-independent basis, Debye-Ang**2):
  XXX=              2.6682  YYY=             -2.9989  ZZZ=              0.8999  XYY=             -0.6416
  XXY=              4.0909  XXZ=             -2.0918  XZZ=              1.2120  YZZ=              1.4955
  YYZ=              0.6111  XYZ=             -0.3641
 Hexadecapole moment (field-independent basis, Debye-Ang**3):
 XXXX=          -2435.7181 YYYY=           -693.4922 ZZZZ=           -166.6415 XXXY=              2.3047
 XXXZ=             14.7515 YYYX=            -11.0526 YYYZ=             -1.4215 ZZZX=              2.8119
 ZZZY=             -0.6411 XXYY=           -520.1249 XXZZ=           -449.2342 YYZZ=           -138.3649
 XXYZ=             -4.2785 YYXZ=              0.5785 ZZXY=              5.9188
 N-N= 5.190879523372D+02 E-N=-1.942888644127D+03  KE= 3.887471641031D+02
 No NMR shielding tensors so no spin-rotation constants.
 Leave Link  601 at Fri Sep 17 14:15:16 2021, MaxMem=   524288000 cpu:               0.2 elap:               0.2
 (Enter /opt/gaussian/g16_legacy/l9999.exe)
 1\1\GINC-TRUENO95\FOpt\RMP2-FC\6-31G(d,p)\C10H18\JRAMOS\17-Sep-2021\0\
 \#p opt mp2/6-31g(d,p)\\Conformer number 094. Energy MM = 23.242 kcal/
 mol\\0,1\C,-0.0075618421,1.1158719622,0.2716414303\H,-0.7065302419,0.5
 455061602,0.8853527152\H,-0.5696412947,1.96940861,-0.1182682011\C,1.16
 12111618,1.6153826327,1.0831514487\C,1.7641473535,2.9137634529,0.62041
 35194\H,1.0429440667,3.729366264,0.7069173559\H,2.6473444643,3.1748925
 1,1.2020436407\H,2.055244418,2.8575828668,-0.4308634581\C,1.6853090273
 ,0.9397682179,2.1227755028\H,2.5455762431,1.3744719998,2.6242893602\C,
 1.2108847672,-0.3688818028,2.6780222929\H,0.9251617318,-0.2680479686,3
 .7268103276\H,2.005874975,-1.1158342512,2.6360865436\H,0.3563697858,-0
 .7643446326,2.1335975774\C,-1.1205684751,-2.4387495231,-0.7478798348\H
 ,-0.8809422242,-3.3567538986,-1.2891969211\H,-2.0018526436,-2.65244983
 61,-0.1391879604\H,-0.295646711,-2.2150998304,-0.0761443466\C,-1.41435
 96416,-1.3206370691,-1.7093242311\C,-2.5773440254,-1.5713875011,-2.629
 1289882\H,-3.4944907859,-1.7399761998,-2.0602459831\H,-2.4097898317,-2
 .4668123245,-3.231984151\H,-2.7426004578,-0.7321911718,-3.3030713285\C
 ,-0.7142905839,-0.1725337905,-1.7766143146\H,-1.0395365932,0.570133951
 ,-2.5008328316\C,0.4399860675,0.2320395146,-0.9083683446\H,0.966233467
 7,-0.6372315199,-0.5120536638\H,1.1689678223,0.7828431778,-1.508737156
 3\\Version=EM64L-G16RevA.03\State=1-A\HF=-389.1567535\MP2=-390.5738646
 \RMSD=5.133e-09\RMSF=3.184e-06\Dipole=-0.0633544,-0.0971405,-0.0080885
 \PG=C01 [X(C10H18)]\\@


 THE UNDERLYING PHYSICAL LAWS NECESSARY FOR THE 
 MATHEMATICAL THEORY OF A LARGE PART OF PHYSICS AND THE
 WHOLE OF CHEMISTRY ARE THUS COMPLETELY KNOWN, AND THE
 DIFFICULTY IS ONLY THAT THE EXACT APPLICATION OF THESE
 LAWS LEADS TO EQUATIONS MUCH TOO COMPLICATED 
 TO BE SOLUBLE.

                                        -- P. A. M. DIRAC, 1929
 Job cpu time:       0 days  0 hours 42 minutes 30.9 seconds.
 Elapsed time:       0 days  0 hours 42 minutes 38.9 seconds.
 File lengths (MBytes):  RWF=     32 Int=      0 D2E=      0 Chk=      7 Scr=      1
 Normal termination of Gaussian 16 at Fri Sep 17 14:15:17 2021.
