 Entering Gaussian System, Link 0=/opt/gaussian/g16_legacy/g16
 Input=01-IsoP_1352_gaussian.com
 Output=01-IsoP_1352_gaussian.log
 Initial command:
 /opt/gaussian/g16_legacy/l1.exe "/scratch-local/jramos/2661325/Gau-6140.inp" -scrdir="/scratch-local/jramos/2661325/"
 Entering Link 1 = /opt/gaussian/g16_legacy/l1.exe PID=      6154.
  
 Copyright (c) 1988,1990,1992,1993,1995,1998,2003,2009,2016,
            Gaussian, Inc.  All Rights Reserved.
  
 This is part of the Gaussian(R) 16 program.  It is based on
 the Gaussian(R) 09 system (copyright 2009, Gaussian, Inc.),
 the Gaussian(R) 03 system (copyright 2003, Gaussian, Inc.),
 the Gaussian(R) 98 system (copyright 1998, Gaussian, Inc.),
 the Gaussian(R) 94 system (copyright 1995, Gaussian, Inc.),
 the Gaussian 92(TM) system (copyright 1992, Gaussian, Inc.),
 the Gaussian 90(TM) system (copyright 1990, Gaussian, Inc.),
 the Gaussian 88(TM) system (copyright 1988, Gaussian, Inc.),
 the Gaussian 86(TM) system (copyright 1986, Carnegie Mellon
 University), and the Gaussian 82(TM) system (copyright 1983,
 Carnegie Mellon University). Gaussian is a federally registered
 trademark of Gaussian, Inc.
  
 This software contains proprietary and confidential information,
 including trade secrets, belonging to Gaussian, Inc.
  
 This software is provided under written license and may be
 used, copied, transmitted, or stored only in accord with that
 written license.
  
 The following legend is applicable only to US Government
 contracts under FAR:
  
                    RESTRICTED RIGHTS LEGEND
  
 Use, reproduction and disclosure by the US Government is
 subject to restrictions as set forth in subparagraphs (a)
 and (c) of the Commercial Computer Software - Restricted
 Rights clause in FAR 52.227-19.
  
 Gaussian, Inc.
 340 Quinnipiac St., Bldg. 40, Wallingford CT 06492
  
  
 ---------------------------------------------------------------
 Warning -- This program may not be used in any manner that
 competes with the business of Gaussian, Inc. or will provide
 assistance to any competitor of Gaussian, Inc.  The licensee
 of this program is prohibited from giving any competitor of
 Gaussian, Inc. access to this program.  By using this program,
 the user acknowledges that Gaussian, Inc. is engaged in the
 business of creating and licensing software in the field of
 computational chemistry and represents and warrants to the
 licensee that it is not a competitor of Gaussian, Inc. and that
 it will not use this program in any manner prohibited above.
 ---------------------------------------------------------------
  

 Cite this work as:
 Gaussian 16, Revision A.03,
 M. J. Frisch, G. W. Trucks, H. B. Schlegel, G. E. Scuseria, 
 M. A. Robb, J. R. Cheeseman, G. Scalmani, V. Barone, 
 G. A. Petersson, H. Nakatsuji, X. Li, M. Caricato, A. V. Marenich, 
 J. Bloino, B. G. Janesko, R. Gomperts, B. Mennucci, H. P. Hratchian, 
 J. V. Ortiz, A. F. Izmaylov, J. L. Sonnenberg, D. Williams-Young, 
 F. Ding, F. Lipparini, F. Egidi, J. Goings, B. Peng, A. Petrone, 
 T. Henderson, D. Ranasinghe, V. G. Zakrzewski, J. Gao, N. Rega, 
 G. Zheng, W. Liang, M. Hada, M. Ehara, K. Toyota, R. Fukuda, 
 J. Hasegawa, M. Ishida, T. Nakajima, Y. Honda, O. Kitao, H. Nakai, 
 T. Vreven, K. Throssell, J. A. Montgomery, Jr., J. E. Peralta, 
 F. Ogliaro, M. J. Bearpark, J. J. Heyd, E. N. Brothers, K. N. Kudin, 
 V. N. Staroverov, T. A. Keith, R. Kobayashi, J. Normand, 
 K. Raghavachari, A. P. Rendell, J. C. Burant, S. S. Iyengar, 
 J. Tomasi, M. Cossi, J. M. Millam, M. Klene, C. Adamo, R. Cammi, 
 J. W. Ochterski, R. L. Martin, K. Morokuma, O. Farkas, 
 J. B. Foresman, and D. J. Fox, Gaussian, Inc., Wallingford CT, 2016.
 
 ******************************************
 Gaussian 16:  EM64L-G16RevA.03 25-Dec-2016
                17-Sep-2021 
 ******************************************
 %chk=01-IsoP_1352_gaussian.chk
 %nproc=1
 Will use up to    1 processors via shared memory.
 %mem=4000Mb
 ---------------------
 #p opt mp2/6-31g(d,p)
 ---------------------
 1/18=20,19=15,38=1/1,3;
 2/9=110,12=2,17=6,18=5,40=1/2;
 3/5=1,6=6,7=101,11=9,25=1,30=1,71=1/1,2,3;
 4//1;
 5/5=2,38=5/2;
 8/6=4,10=2/1;
 9/15=2,16=-3/6;
 10/5=1/2;
 6/7=2,8=2,9=2,10=2/1;
 7/12=2/1,2,3,16;
 1/18=20,19=15/3(2);
 2/9=110/2;
 99//99;
 2/9=110/2;
 3/5=1,6=6,7=101,11=9,25=1,30=1,71=1/1,2,3;
 4/5=5,16=3,69=1/1;
 5/5=2,38=5/2;
 8/6=4,10=2/1;
 9/15=2,16=-3/6;
 10/5=1/2;
 7/12=2/1,2,3,16;
 1/18=20,19=15/3(-8);
 2/9=110/2;
 6/7=2,8=2,9=2,10=2/1;
 99//99;
 Leave Link    1 at Fri Sep 17 13:32:33 2021, MaxMem=   524288000 cpu:               0.0 elap:               0.2
 (Enter /opt/gaussian/g16_legacy/l101.exe)
 --------------------------------------------------
 Conformer number 1352. Energy MM = 23.242 kcal/mol
 --------------------------------------------------
 Symbolic Z-matrix:
 Charge =  0 Multiplicity = 1
 C                     0.2686    0.2451    1.1473 
 H                     0.2007   -0.8451    1.0514 
 H                    -0.3421    0.4889    2.0271 
 C                     1.6996    0.6689    1.407 
 C                     1.8548    1.9446    2.1946 
 H                     1.3764    1.8463    3.1745 
 H                     1.3914    2.7815    1.6628 
 H                     2.9057    2.2023    2.3639 
 C                     2.7833   -0.0239    1.0045 
 H                     3.7711    0.3568    1.263 
 C                     2.8108   -1.2846    0.1995 
 H                     1.8318   -1.5762   -0.1872 
 H                     3.4747   -1.1531   -0.661 
 H                     3.2012   -2.1057    0.8083 
 C                    -3.6708   -0.6761   -1.37 
 H                    -4.2691   -0.086    -0.6678 
 H                    -3.8708   -1.7338   -1.1699 
 H                    -4.0182   -0.4408   -2.3814 
 C                    -2.1967   -0.3907   -1.2465 
 C                    -1.3335   -1.1722   -2.1983 
 H                    -0.2639   -1.0563   -2.0097 
 H                    -1.5307   -0.8592   -3.2286 
 H                    -1.5553   -2.2417   -2.1148 
 C                    -1.7417    0.4907   -0.3346 
 H                    -2.464     0.9844    0.3157 
 C                    -0.3168    0.9161   -0.0994 
 H                     0.3125    0.7131   -0.9721 
 H                    -0.3088    2.0068    0.0214 
 
 ITRead=  0  0  0  0  0  0  0  0  0  0  0  0  0  0  0  0  0  0  0  0
 ITRead=  0  0  0  0  0  0  0  0
 MicOpt= -1 -1 -1 -1 -1 -1 -1 -1 -1 -1 -1 -1 -1 -1 -1 -1 -1 -1 -1 -1
 MicOpt= -1 -1 -1 -1 -1 -1 -1 -1
 NAtoms=     28 NQM=       28 NQMF=       0 NMMI=      0 NMMIF=      0
                NMic=       0 NMicF=      0.
                    Isotopes and Nuclear Properties:
 (Nuclear quadrupole moments (NQMom) in fm**2, nuclear magnetic moments (NMagM)
  in nuclear magnetons)

  Atom         1           2           3           4           5           6           7           8           9          10
 IAtWgt=          12           1           1          12          12           1           1           1          12           1
 AtmWgt=  12.0000000   1.0078250   1.0078250  12.0000000  12.0000000   1.0078250   1.0078250   1.0078250  12.0000000   1.0078250
 NucSpn=           0           1           1           0           0           1           1           1           0           1
 AtZEff=  -0.0000000  -0.0000000  -0.0000000  -0.0000000  -0.0000000  -0.0000000  -0.0000000  -0.0000000  -0.0000000  -0.0000000
 NQMom=    0.0000000   0.0000000   0.0000000   0.0000000   0.0000000   0.0000000   0.0000000   0.0000000   0.0000000   0.0000000
 NMagM=    0.0000000   2.7928460   2.7928460   0.0000000   0.0000000   2.7928460   2.7928460   2.7928460   0.0000000   2.7928460
 AtZNuc=   6.0000000   1.0000000   1.0000000   6.0000000   6.0000000   1.0000000   1.0000000   1.0000000   6.0000000   1.0000000

  Atom        11          12          13          14          15          16          17          18          19          20
 IAtWgt=          12           1           1           1          12           1           1           1          12          12
 AtmWgt=  12.0000000   1.0078250   1.0078250   1.0078250  12.0000000   1.0078250   1.0078250   1.0078250  12.0000000  12.0000000
 NucSpn=           0           1           1           1           0           1           1           1           0           0
 AtZEff=  -0.0000000  -0.0000000  -0.0000000  -0.0000000  -0.0000000  -0.0000000  -0.0000000  -0.0000000  -0.0000000  -0.0000000
 NQMom=    0.0000000   0.0000000   0.0000000   0.0000000   0.0000000   0.0000000   0.0000000   0.0000000   0.0000000   0.0000000
 NMagM=    0.0000000   2.7928460   2.7928460   2.7928460   0.0000000   2.7928460   2.7928460   2.7928460   0.0000000   0.0000000
 AtZNuc=   6.0000000   1.0000000   1.0000000   1.0000000   6.0000000   1.0000000   1.0000000   1.0000000   6.0000000   6.0000000

  Atom        21          22          23          24          25          26          27          28
 IAtWgt=           1           1           1          12           1          12           1           1
 AtmWgt=   1.0078250   1.0078250   1.0078250  12.0000000   1.0078250  12.0000000   1.0078250   1.0078250
 NucSpn=           1           1           1           0           1           0           1           1
 AtZEff=  -0.0000000  -0.0000000  -0.0000000  -0.0000000  -0.0000000  -0.0000000  -0.0000000  -0.0000000
 NQMom=    0.0000000   0.0000000   0.0000000   0.0000000   0.0000000   0.0000000   0.0000000   0.0000000
 NMagM=    2.7928460   2.7928460   2.7928460   0.0000000   2.7928460   0.0000000   2.7928460   2.7928460
 AtZNuc=   1.0000000   1.0000000   1.0000000   6.0000000   1.0000000   6.0000000   1.0000000   1.0000000
 Leave Link  101 at Fri Sep 17 13:32:34 2021, MaxMem=   524288000 cpu:               0.1 elap:               0.5
 (Enter /opt/gaussian/g16_legacy/l103.exe)

 GradGradGradGradGradGradGradGradGradGradGradGradGradGradGradGradGradGrad
 Berny optimization.
 Initialization pass.
                           ----------------------------
                           !    Initial Parameters    !
                           ! (Angstroms and Degrees)  !
 --------------------------                            --------------------------
 ! Name  Definition              Value          Derivative Info.                !
 --------------------------------------------------------------------------------
 ! R1    R(1,2)                  1.0965         estimate D2E/DX2                !
 ! R2    R(1,3)                  1.0984         estimate D2E/DX2                !
 ! R3    R(1,4)                  1.5149         estimate D2E/DX2                !
 ! R4    R(1,26)                 1.5321         estimate D2E/DX2                !
 ! R5    R(4,5)                  1.5073         estimate D2E/DX2                !
 ! R6    R(4,9)                  1.3477         estimate D2E/DX2                !
 ! R7    R(5,6)                  1.0949         estimate D2E/DX2                !
 ! R8    R(5,7)                  1.0945         estimate D2E/DX2                !
 ! R9    R(5,8)                  1.0952         estimate D2E/DX2                !
 ! R10   R(9,10)                 1.0897         estimate D2E/DX2                !
 ! R11   R(9,11)                 1.496          estimate D2E/DX2                !
 ! R12   R(11,12)                1.0922         estimate D2E/DX2                !
 ! R13   R(11,13)                1.0948         estimate D2E/DX2                !
 ! R14   R(11,14)                1.0942         estimate D2E/DX2                !
 ! R15   R(15,16)                1.0951         estimate D2E/DX2                !
 ! R16   R(15,17)                1.0949         estimate D2E/DX2                !
 ! R17   R(15,18)                1.095          estimate D2E/DX2                !
 ! R18   R(15,19)                1.5065         estimate D2E/DX2                !
 ! R19   R(19,20)                1.5039         estimate D2E/DX2                !
 ! R20   R(19,24)                1.3474         estimate D2E/DX2                !
 ! R21   R(20,21)                1.0923         estimate D2E/DX2                !
 ! R22   R(20,22)                1.0947         estimate D2E/DX2                !
 ! R23   R(20,23)                1.0954         estimate D2E/DX2                !
 ! R24   R(24,25)                1.0901         estimate D2E/DX2                !
 ! R25   R(24,26)                1.5055         estimate D2E/DX2                !
 ! R26   R(26,27)                1.0949         estimate D2E/DX2                !
 ! R27   R(26,28)                1.0974         estimate D2E/DX2                !
 ! A1    A(2,1,3)              104.8512         estimate D2E/DX2                !
 ! A2    A(2,1,4)              110.5876         estimate D2E/DX2                !
 ! A3    A(2,1,26)             109.9147         estimate D2E/DX2                !
 ! A4    A(3,1,4)              109.0143         estimate D2E/DX2                !
 ! A5    A(3,1,26)             110.0075         estimate D2E/DX2                !
 ! A6    A(4,1,26)             112.2051         estimate D2E/DX2                !
 ! A7    A(1,4,5)              115.0641         estimate D2E/DX2                !
 ! A8    A(1,4,9)              124.3722         estimate D2E/DX2                !
 ! A9    A(5,4,9)              120.5532         estimate D2E/DX2                !
 ! A10   A(4,5,6)              110.2849         estimate D2E/DX2                !
 ! A11   A(4,5,7)              110.4677         estimate D2E/DX2                !
 ! A12   A(4,5,8)              112.2551         estimate D2E/DX2                !
 ! A13   A(6,5,7)              108.573          estimate D2E/DX2                !
 ! A14   A(6,5,8)              107.5807         estimate D2E/DX2                !
 ! A15   A(7,5,8)              107.5448         estimate D2E/DX2                !
 ! A16   A(4,9,10)             118.5844         estimate D2E/DX2                !
 ! A17   A(4,9,11)             127.4929         estimate D2E/DX2                !
 ! A18   A(10,9,11)            113.9147         estimate D2E/DX2                !
 ! A19   A(9,11,12)            113.5158         estimate D2E/DX2                !
 ! A20   A(9,11,13)            109.4429         estimate D2E/DX2                !
 ! A21   A(9,11,14)            109.8489         estimate D2E/DX2                !
 ! A22   A(12,11,13)           107.298          estimate D2E/DX2                !
 ! A23   A(12,11,14)           108.448          estimate D2E/DX2                !
 ! A24   A(13,11,14)           108.1255         estimate D2E/DX2                !
 ! A25   A(16,15,17)           107.6718         estimate D2E/DX2                !
 ! A26   A(16,15,18)           107.6464         estimate D2E/DX2                !
 ! A27   A(16,15,19)           112.3292         estimate D2E/DX2                !
 ! A28   A(17,15,18)           108.569          estimate D2E/DX2                !
 ! A29   A(17,15,19)           110.2892         estimate D2E/DX2                !
 ! A30   A(18,15,19)           110.2088         estimate D2E/DX2                !
 ! A31   A(15,19,20)           114.2855         estimate D2E/DX2                !
 ! A32   A(15,19,24)           120.652          estimate D2E/DX2                !
 ! A33   A(20,19,24)           125.0597         estimate D2E/DX2                !
 ! A34   A(19,20,21)           113.4306         estimate D2E/DX2                !
 ! A35   A(19,20,22)           110.1009         estimate D2E/DX2                !
 ! A36   A(19,20,23)           110.0524         estimate D2E/DX2                !
 ! A37   A(21,20,22)           107.9732         estimate D2E/DX2                !
 ! A38   A(21,20,23)           106.7806         estimate D2E/DX2                !
 ! A39   A(22,20,23)           108.3256         estimate D2E/DX2                !
 ! A40   A(19,24,25)           118.4404         estimate D2E/DX2                !
 ! A41   A(19,24,26)           127.602          estimate D2E/DX2                !
 ! A42   A(25,24,26)           113.9503         estimate D2E/DX2                !
 ! A43   A(1,26,24)            111.4082         estimate D2E/DX2                !
 ! A44   A(1,26,27)            110.3516         estimate D2E/DX2                !
 ! A45   A(1,26,28)            110.056          estimate D2E/DX2                !
 ! A46   A(24,26,27)           111.5345         estimate D2E/DX2                !
 ! A47   A(24,26,28)           107.7539         estimate D2E/DX2                !
 ! A48   A(27,26,28)           105.5346         estimate D2E/DX2                !
 ! D1    D(2,1,4,5)           -151.4136         estimate D2E/DX2                !
 ! D2    D(2,1,4,9)             27.4085         estimate D2E/DX2                !
 ! D3    D(3,1,4,5)            -36.6396         estimate D2E/DX2                !
 ! D4    D(3,1,4,9)            142.1826         estimate D2E/DX2                !
 ! D5    D(26,1,4,5)            85.4704         estimate D2E/DX2                !
 ! D6    D(26,1,4,9)           -95.7075         estimate D2E/DX2                !
 ! D7    D(2,1,26,24)           56.9381         estimate D2E/DX2                !
 ! D8    D(2,1,26,27)          -67.5298         estimate D2E/DX2                !
 ! D9    D(2,1,26,28)          176.3974         estimate D2E/DX2                !
 ! D10   D(3,1,26,24)          -58.0251         estimate D2E/DX2                !
 ! D11   D(3,1,26,27)          177.507          estimate D2E/DX2                !
 ! D12   D(3,1,26,28)           61.4342         estimate D2E/DX2                !
 ! D13   D(4,1,26,24)         -179.568          estimate D2E/DX2                !
 ! D14   D(4,1,26,27)           55.964          estimate D2E/DX2                !
 ! D15   D(4,1,26,28)          -60.1087         estimate D2E/DX2                !
 ! D16   D(1,4,5,6)             59.4938         estimate D2E/DX2                !
 ! D17   D(1,4,5,7)            -60.5334         estimate D2E/DX2                !
 ! D18   D(1,4,5,8)            179.4402         estimate D2E/DX2                !
 ! D19   D(9,4,5,6)           -119.3773         estimate D2E/DX2                !
 ! D20   D(9,4,5,7)            120.5955         estimate D2E/DX2                !
 ! D21   D(9,4,5,8)              0.5691         estimate D2E/DX2                !
 ! D22   D(1,4,9,10)          -178.6016         estimate D2E/DX2                !
 ! D23   D(1,4,9,11)             2.4958         estimate D2E/DX2                !
 ! D24   D(5,4,9,10)             0.1595         estimate D2E/DX2                !
 ! D25   D(5,4,9,11)          -178.7432         estimate D2E/DX2                !
 ! D26   D(4,9,11,12)            7.9129         estimate D2E/DX2                !
 ! D27   D(4,9,11,13)          127.7468         estimate D2E/DX2                !
 ! D28   D(4,9,11,14)         -113.6868         estimate D2E/DX2                !
 ! D29   D(10,9,11,12)        -171.033          estimate D2E/DX2                !
 ! D30   D(10,9,11,13)         -51.1991         estimate D2E/DX2                !
 ! D31   D(10,9,11,14)          67.3673         estimate D2E/DX2                !
 ! D32   D(16,15,19,20)       -179.625          estimate D2E/DX2                !
 ! D33   D(16,15,19,24)          0.9553         estimate D2E/DX2                !
 ! D34   D(17,15,19,20)         60.2609         estimate D2E/DX2                !
 ! D35   D(17,15,19,24)       -119.1588         estimate D2E/DX2                !
 ! D36   D(18,15,19,20)        -59.5983         estimate D2E/DX2                !
 ! D37   D(18,15,19,24)        120.982          estimate D2E/DX2                !
 ! D38   D(15,19,20,21)       -172.3346         estimate D2E/DX2                !
 ! D39   D(15,19,20,22)         66.5531         estimate D2E/DX2                !
 ! D40   D(15,19,20,23)        -52.7873         estimate D2E/DX2                !
 ! D41   D(24,19,20,21)          7.0555         estimate D2E/DX2                !
 ! D42   D(24,19,20,22)       -114.0568         estimate D2E/DX2                !
 ! D43   D(24,19,20,23)        126.6029         estimate D2E/DX2                !
 ! D44   D(15,19,24,25)          0.5205         estimate D2E/DX2                !
 ! D45   D(15,19,24,26)       -178.4277         estimate D2E/DX2                !
 ! D46   D(20,19,24,25)       -178.8333         estimate D2E/DX2                !
 ! D47   D(20,19,24,26)          2.2185         estimate D2E/DX2                !
 ! D48   D(19,24,26,1)        -103.3685         estimate D2E/DX2                !
 ! D49   D(19,24,26,27)         20.4315         estimate D2E/DX2                !
 ! D50   D(19,24,26,28)        135.814          estimate D2E/DX2                !
 ! D51   D(25,24,26,1)          77.6434         estimate D2E/DX2                !
 ! D52   D(25,24,26,27)       -158.5566         estimate D2E/DX2                !
 ! D53   D(25,24,26,28)        -43.174          estimate D2E/DX2                !
 --------------------------------------------------------------------------------
 Trust Radius=3.00D-01 FncErr=1.00D-07 GrdErr=1.00D-07 EigMax=2.50D+02 EigMin=1.00D-04
 Number of steps in this run=    138 maximum allowed number of steps=    168.
 GradGradGradGradGradGradGradGradGradGradGradGradGradGradGradGradGradGrad

 Leave Link  103 at Fri Sep 17 13:32:34 2021, MaxMem=   524288000 cpu:               0.0 elap:               0.5
 (Enter /opt/gaussian/g16_legacy/l202.exe)
                          Input orientation:                          
 ---------------------------------------------------------------------
 Center     Atomic      Atomic             Coordinates (Angstroms)
 Number     Number       Type             X           Y           Z
 ---------------------------------------------------------------------
      1          6           0        0.268600    0.245100    1.147300
      2          1           0        0.200700   -0.845100    1.051400
      3          1           0       -0.342100    0.488900    2.027100
      4          6           0        1.699600    0.668900    1.407000
      5          6           0        1.854800    1.944600    2.194600
      6          1           0        1.376400    1.846300    3.174500
      7          1           0        1.391400    2.781500    1.662800
      8          1           0        2.905700    2.202300    2.363900
      9          6           0        2.783300   -0.023900    1.004500
     10          1           0        3.771100    0.356800    1.263000
     11          6           0        2.810800   -1.284600    0.199500
     12          1           0        1.831800   -1.576200   -0.187200
     13          1           0        3.474700   -1.153100   -0.661000
     14          1           0        3.201200   -2.105700    0.808300
     15          6           0       -3.670800   -0.676100   -1.370000
     16          1           0       -4.269100   -0.086000   -0.667800
     17          1           0       -3.870800   -1.733800   -1.169900
     18          1           0       -4.018200   -0.440800   -2.381400
     19          6           0       -2.196700   -0.390700   -1.246500
     20          6           0       -1.333500   -1.172200   -2.198300
     21          1           0       -0.263900   -1.056300   -2.009700
     22          1           0       -1.530700   -0.859200   -3.228600
     23          1           0       -1.555300   -2.241700   -2.114800
     24          6           0       -1.741700    0.490700   -0.334600
     25          1           0       -2.464000    0.984400    0.315700
     26          6           0       -0.316800    0.916100   -0.099400
     27          1           0        0.312500    0.713100   -0.972100
     28          1           0       -0.308800    2.006800    0.021400
 ---------------------------------------------------------------------
                    Distance matrix (angstroms):
                    1          2          3          4          5
     1  C    0.000000
     2  H    1.096514   0.000000
     3  H    1.098381   1.739591   0.000000
     4  C    1.514864   2.159942   2.141369   0.000000
     5  C    2.549739   3.438805   2.640736   1.507253   0.000000
     6  H    2.810801   3.624011   2.472307   2.148205   1.094867
     7  H    2.821302   3.865722   2.897197   2.150232   1.094510
     8  H    3.502148   4.280926   3.687462   2.172936   1.095200
     9  C    2.533075   2.710423   3.328183   1.347733   2.480613
    10  H    3.506190   3.773207   4.185656   2.099823   2.657291
    11  C    3.114657   2.780560   4.052925   2.551271   3.914344
    12  H    2.746201   2.174655   3.727412   2.756705   4.250827
    13  H    3.937511   3.707594   4.948738   3.278306   4.513787
    14  H    3.773768   3.263619   4.557675   3.211176   4.487711
    15  C    4.764901   4.569491   4.896709   6.193702   7.078608
    16  H    4.898463   4.848814   4.797325   6.363965   7.058245
    17  H    5.140048   4.722401   5.254800   6.591110   7.591639
    18  H    5.594536   5.454053   5.814888   6.948140   7.818058
    19  C    3.494599   3.351768   3.863896   4.831663   5.805984
    20  C    3.970957   3.608506   4.647164   5.058412   6.259175
    21  H    3.455987   3.103352   4.323137   4.301800   5.583048
    22  H    4.858545   4.616963   5.554505   5.853094   6.980974
    23  H    4.489107   3.880573   5.107188   5.609727   6.908315
    24  C    2.509513   2.734644   2.745271   3.861019   4.630928
    25  H    2.950462   3.314959   2.770716   4.315790   4.806691
    26  C    1.532056   2.166558   2.169134   2.529074   3.322062
    27  H    2.170900   2.556372   3.077981   2.754291   3.731390
    28  H    2.169016   3.074707   2.515544   2.782721   3.067219
                    6          7          8          9         10
     6  H    0.000000
     7  H    1.777656   0.000000
     8  H    1.767079   1.766386   0.000000
     9  C    3.191538   3.200158   2.611306   0.000000
    10  H    3.406909   3.420816   2.316629   1.089726   0.000000
    11  C    4.550897   4.548529   4.105132   1.496043   2.178853
    12  H    4.818913   4.754577   4.683848   2.176037   3.098460
    13  H    5.301917   5.022078   4.553294   2.127679   2.463621
    14  H    4.954503   5.281124   4.589779   2.132376   2.568160
    15  C    7.244944   6.839499   8.091820   6.907896   7.961247
    16  H    7.097093   6.759846   8.118207   7.248227   8.280633
    17  H    7.695715   7.490185   8.596603   7.206165   8.287837
    18  H    8.074686   7.483485   8.800241   7.609108   8.636609
    19  C    6.108719   5.603690   6.767062   5.477403   6.516977
    20  C    6.732153   6.161568   7.083201   5.340839   6.354162
    21  H    6.163733   5.563810   6.308186   4.408705   5.384110
    22  H    7.534630   6.761594   7.767270   6.101431   7.054233
    23  H    7.299541   6.941602   7.727122   5.785509   6.821457
    24  C    4.886101   4.365053   5.640018   4.746960   5.741186
    25  H    4.864595   4.461878   5.874698   5.387511   6.337802
    26  C    3.801397   3.082696   4.255193   3.422399   4.345098
    27  H    4.428354   3.519233   4.480100   3.248841   4.133344
    28  H    3.578785   2.486973   3.982278   3.827703   4.572708
                   11         12         13         14         15
    11  C    0.000000
    12  H    1.092249   0.000000
    13  H    1.094767   1.761426   0.000000
    14  H    1.094191   1.773879   1.772312   0.000000
    15  C    6.696622   5.699807   7.196414   7.349363   0.000000
    16  H    7.232830   6.298623   7.816981   7.878035   1.095110
    17  H    6.835263   5.788798   7.385971   7.352875   1.094883
    18  H    7.349033   6.350287   7.720796   8.066338   1.094981
    19  C    5.288197   4.330859   5.752290   6.025011   1.506544
    20  C    4.789290   3.771851   5.048014   5.520378   2.528867
    21  H    3.792949   2.825555   3.975612   4.587950   3.487225
    22  H    5.548104   4.590273   5.633203   6.343595   2.840413
    23  H    5.033374   3.953603   5.347849   5.584559   2.735173
    24  C    4.915507   4.130824   5.479000   5.699103   2.480908
    25  H    5.743290   5.026279   6.386784   6.471929   2.656165
    26  C    3.835923   3.291770   4.355738   4.725624   3.924136
    27  H    3.406605   2.857488   3.684969   4.411354   4.237320
    28  H    4.538385   4.178944   4.976496   5.463695   4.520729
                   16         17         18         19         20
    16  H    0.000000
    17  H    1.768048   0.000000
    18  H    1.767840   1.778007   0.000000
    19  C    2.173149   2.147649   2.146712   0.000000
    20  C    3.484251   2.794797   2.788563   1.503921   0.000000
    21  H    4.334029   3.764837   3.822534   2.182020   1.092267
    22  H    3.828103   3.237165   2.660914   2.142841   1.094703
    23  H    3.755737   2.551928   3.062710   2.142788   1.095444
    24  C    2.613686   3.190485   3.199927   1.347387   2.530858
    25  H    2.317631   3.402162   3.423606   2.098289   3.499879
    26  C    4.116790   4.560576   4.555114   2.560779   3.130504
    27  H    4.660710   4.850407   4.698146   2.754951   2.786977
    28  H    4.531974   5.300861   5.052113   3.304503   4.010376
                   21         22         23         24         25
    21  H    0.000000
    22  H    1.768996   0.000000
    23  H    1.756113   1.775517   0.000000
    24  C    2.717179   3.200310   3.266476   0.000000
    25  H    3.796364   4.102679   4.140143   1.090113   0.000000
    26  C    2.746344   3.796990   3.945557   1.505531   2.188022
    27  H    2.130640   3.310786   3.677674   2.162315   3.072619
    28  H    3.675590   4.502166   4.915981   2.116246   2.403498
                   26         27         28
    26  C    0.000000
    27  H    1.094912   0.000000
    28  H    1.097398   1.745484   0.000000
 Stoichiometry    C10H18
 Framework group  C1[X(C10H18)]
 Deg. of freedom    78
 Full point group                 C1      NOp   1
 Largest Abelian subgroup         C1      NOp   1
 Largest concise Abelian subgroup C1      NOp   1
                         Standard orientation:                         
 ---------------------------------------------------------------------
 Center     Atomic      Atomic             Coordinates (Angstroms)
 Number     Number       Type             X           Y           Z
 ---------------------------------------------------------------------
      1          6           0       -0.793777   -0.586490    0.589217
      2          1           0       -0.484623    0.235249    1.246113
      3          1           0       -0.745986   -1.484398    1.220025
      4          6           0       -2.220915   -0.386916    0.122036
      5          6           0       -2.975642   -1.655051   -0.184610
      6          1           0       -3.025234   -2.291734    0.704720
      7          1           0       -2.478656   -2.212197   -0.984950
      8          1           0       -4.003249   -1.458213   -0.508250
      9          6           0       -2.820184    0.813911   -0.001565
     10          1           0       -3.860378    0.846710   -0.324712
     11          6           0       -2.215747    2.161860    0.234730
     12          1           0       -1.137463    2.131969    0.406245
     13          1           0       -2.388754    2.797204   -0.639868
     14          1           0       -2.690825    2.635718    1.099030
     15          6           0        3.965105   -0.407924    0.429718
     16          1           0        4.023663   -1.466044    0.705793
     17          1           0        4.237014    0.181208    1.311624
     18          1           0        4.709124   -0.227463   -0.353131
     19          6           0        2.593363   -0.018240   -0.056230
     20          6           0        2.465965    1.425932   -0.456126
     21          1           0        1.439626    1.726000   -0.678912
     22          1           0        3.076395    1.626126   -1.342508
     23          1           0        2.815378    2.072774    0.355973
     24          6           0        1.596322   -0.923595   -0.097399
     25          1           0        1.804035   -1.940180    0.236902
     26          6           0        0.186000   -0.715585   -0.581495
     27          1           0        0.111226    0.157016   -1.238617
     28          1           0       -0.084227   -1.577168   -1.205142
 ---------------------------------------------------------------------
 Rotational constants (GHZ):           2.2180928           0.5802348           0.4854261
 Leave Link  202 at Fri Sep 17 13:32:35 2021, MaxMem=   524288000 cpu:               0.0 elap:               0.1
 (Enter /opt/gaussian/g16_legacy/l301.exe)
 Standard basis: 6-31G(d,p) (6D, 7F)
 Ernie: Thresh=  0.10000D-02 Tol=  0.10000D-05 Strict=F.
 There are   240 symmetry adapted cartesian basis functions of A   symmetry.
 There are   240 symmetry adapted basis functions of A   symmetry.
   240 basis functions,   406 primitive gaussians,   240 cartesian basis functions
    39 alpha electrons       39 beta electrons
       nuclear repulsion energy       516.4355377394 Hartrees.
 IExCor=    0 DFT=F Ex=HF Corr=None ExCW=0 ScaHFX=  1.000000
 ScaDFX=  1.000000  1.000000  1.000000  1.000000 ScalE2=  1.000000  1.000000
 IRadAn=      5 IRanWt=     -1 IRanGd=            0 ICorTp=0 IEmpDi=  4
 NAtoms=   28 NActive=   28 NUniq=   28 SFac= 1.00D+00 NAtFMM=   60 NAOKFM=F Big=F
 Integral buffers will be    131072 words long.
 Raffenetti 1 integral format.
 Two-electron integral symmetry is turned on.
 Leave Link  301 at Fri Sep 17 13:32:36 2021, MaxMem=   524288000 cpu:               0.1 elap:               0.7
 (Enter /opt/gaussian/g16_legacy/l302.exe)
 NPDir=0 NMtPBC=     1 NCelOv=     1 NCel=       1 NClECP=     1 NCelD=      1
         NCelK=      1 NCelE2=     1 NClLst=     1 CellRange=     0.0.
 One-electron integrals computed using PRISM.
 One-electron integral symmetry used in STVInt
 NBasis=   240 RedAO= T EigKep=  2.10D-03  NBF=   240
 NBsUse=   240 1.00D-06 EigRej= -1.00D+00 NBFU=   240
 Leave Link  302 at Fri Sep 17 13:32:36 2021, MaxMem=   524288000 cpu:               0.2 elap:               0.4
 (Enter /opt/gaussian/g16_legacy/l303.exe)
 DipDrv:  MaxL=1.
 Leave Link  303 at Fri Sep 17 13:32:37 2021, MaxMem=   524288000 cpu:               0.0 elap:               0.2
 (Enter /opt/gaussian/g16_legacy/l401.exe)
 ExpMin= 1.61D-01 ExpMax= 3.05D+03 ExpMxC= 4.57D+02 IAcc=3 IRadAn=         5 AccDes= 0.00D+00
 Harris functional with IExCor=  205 and IRadAn=       5 diagonalized for initial guess.
 HarFok:  IExCor=  205 AccDes= 0.00D+00 IRadAn=         5 IDoV= 1 UseB2=F ITyADJ=14
 ICtDFT=  3500011 ScaDFX=  1.000000  1.000000  1.000000  1.000000
 FoFCou: FMM=F IPFlag=           0 FMFlag=      100000 FMFlg1=           0
         NFxFlg=           0 DoJE=T BraDBF=F KetDBF=T FulRan=T
         wScrn=  0.000000 ICntrl=       500 IOpCl=  0 I1Cent=   200000004 NGrid=           0
         NMat0=    1 NMatS0=      1 NMatT0=    0 NMatD0=    1 NMtDS0=    0 NMtDT0=    0
 Petite list used in FoFCou.
 Harris En= -390.109911016398    
 JPrj=0 DoOrth=F DoCkMO=F.
 Leave Link  401 at Fri Sep 17 13:32:44 2021, MaxMem=   524288000 cpu:               6.2 elap:               7.5
 (Enter /opt/gaussian/g16_legacy/l502.exe)
 Keep R1 ints in memory in canonical form, NReq=425198025.
 FoFCou: FMM=F IPFlag=           0 FMFlag=           0 FMFlg1=           0
         NFxFlg=           0 DoJE=F BraDBF=F KetDBF=F FulRan=T
         wScrn=  0.000000 ICntrl=       600 IOpCl=  0 I1Cent=           0 NGrid=           0
         NMat0=    1 NMatS0=  28920 NMatT0=    0 NMatD0=    1 NMtDS0=    0 NMtDT0=    0
 Symmetry not used in FoFCou.
 Two-electron integral symmetry not used.
 Closed shell SCF:
 Using DIIS extrapolation, IDIIS=  1040.
 NGot=   524288000 LenX=   105970886 LenY=   105912845
 Requested convergence on RMS density matrix=1.00D-08 within 128 cycles.
 Requested convergence on MAX density matrix=1.00D-06.
 Requested convergence on             energy=1.00D-06.
 No special actions if energy rises.

 Cycle   1  Pass 1  IDiag  1:
 E= -388.533182277762    
 DIIS: error= 5.21D-02 at cycle   1 NSaved=   1.
 NSaved= 1 IEnMin= 1 EnMin= -388.533182277762     IErMin= 1 ErrMin= 5.21D-02
 ErrMax= 5.21D-02  0.00D+00 EMaxC= 1.00D-01 BMatC= 8.07D-01 BMatP= 8.07D-01
 IDIUse=3 WtCom= 4.79D-01 WtEn= 5.21D-01
 Coeff-Com:  0.100D+01
 Coeff-En:   0.100D+01
 Coeff:      0.100D+01
 Gap=     0.508 Goal=   None    Shift=    0.000
 GapD=    0.508 DampG=2.000 DampE=0.500 DampFc=1.0000 IDamp=-1.
 RMSDP=4.00D-03 MaxDP=1.14D-01              OVMax= 1.33D-01

 Cycle   2  Pass 1  IDiag  1:
 E= -389.073883541665     Delta-E=       -0.540701263902 Rises=F Damp=F
 DIIS: error= 1.59D-02 at cycle   2 NSaved=   2.
 NSaved= 2 IEnMin= 2 EnMin= -389.073883541665     IErMin= 2 ErrMin= 1.59D-02
 ErrMax= 1.59D-02  0.00D+00 EMaxC= 1.00D-01 BMatC= 8.66D-02 BMatP= 8.07D-01
 IDIUse=3 WtCom= 8.41D-01 WtEn= 1.59D-01
 Coeff-Com:  0.183D+00 0.817D+00
 Coeff-En:   0.000D+00 0.100D+01
 Coeff:      0.154D+00 0.846D+00
 Gap=     0.549 Goal=   None    Shift=    0.000
 RMSDP=1.63D-03 MaxDP=3.04D-02 DE=-5.41D-01 OVMax= 4.61D-02

 Cycle   3  Pass 1  IDiag  1:
 E= -389.151442035969     Delta-E=       -0.077558494304 Rises=F Damp=F
 DIIS: error= 3.43D-03 at cycle   3 NSaved=   3.
 NSaved= 3 IEnMin= 3 EnMin= -389.151442035969     IErMin= 3 ErrMin= 3.43D-03
 ErrMax= 3.43D-03  0.00D+00 EMaxC= 1.00D-01 BMatC= 3.14D-03 BMatP= 8.66D-02
 IDIUse=3 WtCom= 9.66D-01 WtEn= 3.43D-02
 Coeff-Com: -0.245D-01 0.106D+00 0.919D+00
 Coeff-En:   0.000D+00 0.000D+00 0.100D+01
 Coeff:     -0.236D-01 0.102D+00 0.921D+00
 Gap=     0.499 Goal=   None    Shift=    0.000
 RMSDP=2.59D-04 MaxDP=7.14D-03 DE=-7.76D-02 OVMax= 1.01D-02

 Cycle   4  Pass 1  IDiag  1:
 E= -389.155067309051     Delta-E=       -0.003625273082 Rises=F Damp=F
 DIIS: error= 5.31D-04 at cycle   4 NSaved=   4.
 NSaved= 4 IEnMin= 4 EnMin= -389.155067309051     IErMin= 4 ErrMin= 5.31D-04
 ErrMax= 5.31D-04  0.00D+00 EMaxC= 1.00D-01 BMatC= 9.28D-05 BMatP= 3.14D-03
 IDIUse=3 WtCom= 9.95D-01 WtEn= 5.31D-03
 Coeff-Com: -0.423D-02-0.190D-02 0.949D-01 0.911D+00
 Coeff-En:   0.000D+00 0.000D+00 0.000D+00 0.100D+01
 Coeff:     -0.421D-02-0.189D-02 0.944D-01 0.912D+00
 Gap=     0.499 Goal=   None    Shift=    0.000
 RMSDP=7.39D-05 MaxDP=1.49D-03 DE=-3.63D-03 OVMax= 3.14D-03

 Cycle   5  Pass 1  IDiag  1:
 E= -389.155191597269     Delta-E=       -0.000124288218 Rises=F Damp=F
 DIIS: error= 1.63D-04 at cycle   5 NSaved=   5.
 NSaved= 5 IEnMin= 5 EnMin= -389.155191597269     IErMin= 5 ErrMin= 1.63D-04
 ErrMax= 1.63D-04  0.00D+00 EMaxC= 1.00D-01 BMatC= 1.59D-05 BMatP= 9.28D-05
 IDIUse=3 WtCom= 9.98D-01 WtEn= 1.63D-03
 Coeff-Com:  0.241D-02-0.152D-01-0.102D+00 0.176D+00 0.939D+00
 Coeff-En:   0.000D+00 0.000D+00 0.000D+00 0.000D+00 0.100D+01
 Coeff:      0.241D-02-0.152D-01-0.102D+00 0.175D+00 0.939D+00
 Gap=     0.500 Goal=   None    Shift=    0.000
 RMSDP=3.00D-05 MaxDP=6.56D-04 DE=-1.24D-04 OVMax= 9.23D-04

 Cycle   6  Pass 1  IDiag  1:
 E= -389.155213067734     Delta-E=       -0.000021470465 Rises=F Damp=F
 DIIS: error= 3.58D-05 at cycle   6 NSaved=   6.
 NSaved= 6 IEnMin= 6 EnMin= -389.155213067734     IErMin= 6 ErrMin= 3.58D-05
 ErrMax= 3.58D-05  0.00D+00 EMaxC= 1.00D-01 BMatC= 5.49D-07 BMatP= 1.59D-05
 IDIUse=1 WtCom= 1.00D+00 WtEn= 0.00D+00
 Coeff-Com:  0.720D-03-0.335D-02-0.260D-01-0.434D-02 0.177D+00 0.856D+00
 Coeff:      0.720D-03-0.335D-02-0.260D-01-0.434D-02 0.177D+00 0.856D+00
 Gap=     0.500 Goal=   None    Shift=    0.000
 RMSDP=5.30D-06 MaxDP=1.61D-04 DE=-2.15D-05 OVMax= 3.23D-04

 Cycle   7  Pass 1  IDiag  1:
 E= -389.155213908294     Delta-E=       -0.000000840560 Rises=F Damp=F
 DIIS: error= 1.03D-05 at cycle   7 NSaved=   7.
 NSaved= 7 IEnMin= 7 EnMin= -389.155213908294     IErMin= 7 ErrMin= 1.03D-05
 ErrMax= 1.03D-05  0.00D+00 EMaxC= 1.00D-01 BMatC= 5.44D-08 BMatP= 5.49D-07
 IDIUse=1 WtCom= 1.00D+00 WtEn= 0.00D+00
 Coeff-Com: -0.494D-04 0.463D-03 0.301D-02-0.105D-01-0.468D-01 0.145D+00
 Coeff-Com:  0.909D+00
 Coeff:     -0.494D-04 0.463D-03 0.301D-02-0.105D-01-0.468D-01 0.145D+00
 Coeff:      0.909D+00
 Gap=     0.500 Goal=   None    Shift=    0.000
 RMSDP=1.71D-06 MaxDP=4.09D-05 DE=-8.41D-07 OVMax= 8.41D-05

 Cycle   8  Pass 1  IDiag  1:
 E= -389.155213997174     Delta-E=       -0.000000088880 Rises=F Damp=F
 DIIS: error= 3.51D-06 at cycle   8 NSaved=   8.
 NSaved= 8 IEnMin= 8 EnMin= -389.155213997174     IErMin= 8 ErrMin= 3.51D-06
 ErrMax= 3.51D-06  0.00D+00 EMaxC= 1.00D-01 BMatC= 5.09D-09 BMatP= 5.44D-08
 IDIUse=1 WtCom= 1.00D+00 WtEn= 0.00D+00
 Coeff-Com: -0.581D-04 0.249D-03 0.208D-02 0.315D-02-0.171D-01-0.804D-01
 Coeff-Com: -0.123D+00 0.121D+01
 Coeff:     -0.581D-04 0.249D-03 0.208D-02 0.315D-02-0.171D-01-0.804D-01
 Coeff:     -0.123D+00 0.121D+01
 Gap=     0.500 Goal=   None    Shift=    0.000
 RMSDP=7.85D-07 MaxDP=2.41D-05 DE=-8.89D-08 OVMax= 5.81D-05

 Cycle   9  Pass 1  IDiag  1:
 E= -389.155214013053     Delta-E=       -0.000000015879 Rises=F Damp=F
 DIIS: error= 1.46D-06 at cycle   9 NSaved=   9.
 NSaved= 9 IEnMin= 9 EnMin= -389.155214013053     IErMin= 9 ErrMin= 1.46D-06
 ErrMax= 1.46D-06  0.00D+00 EMaxC= 1.00D-01 BMatC= 7.38D-10 BMatP= 5.09D-09
 IDIUse=1 WtCom= 1.00D+00 WtEn= 0.00D+00
 Coeff-Com:  0.930D-05-0.690D-04-0.480D-03 0.144D-02 0.386D-02 0.111D-03
 Coeff-Com: -0.865D-01-0.120D+00 0.120D+01
 Coeff:      0.930D-05-0.690D-04-0.480D-03 0.144D-02 0.386D-02 0.111D-03
 Coeff:     -0.865D-01-0.120D+00 0.120D+01
 Gap=     0.500 Goal=   None    Shift=    0.000
 RMSDP=2.99D-07 MaxDP=1.24D-05 DE=-1.59D-08 OVMax= 2.71D-05

 Cycle  10  Pass 1  IDiag  1:
 E= -389.155214015460     Delta-E=       -0.000000002407 Rises=F Damp=F
 DIIS: error= 3.97D-07 at cycle  10 NSaved=  10.
 NSaved=10 IEnMin=10 EnMin= -389.155214015460     IErMin=10 ErrMin= 3.97D-07
 ErrMax= 3.97D-07  0.00D+00 EMaxC= 1.00D-01 BMatC= 1.21D-10 BMatP= 7.38D-10
 IDIUse=1 WtCom= 1.00D+00 WtEn= 0.00D+00
 Coeff-Com:  0.951D-05-0.463D-04-0.369D-03-0.135D-03 0.233D-02 0.142D-01
 Coeff-Com:  0.597D-02-0.211D+00 0.143D+00 0.105D+01
 Coeff:      0.951D-05-0.463D-04-0.369D-03-0.135D-03 0.233D-02 0.142D-01
 Coeff:      0.597D-02-0.211D+00 0.143D+00 0.105D+01
 Gap=     0.500 Goal=   None    Shift=    0.000
 RMSDP=1.24D-07 MaxDP=3.07D-06 DE=-2.41D-09 OVMax= 9.87D-06

 Cycle  11  Pass 1  IDiag  1:
 E= -389.155214015788     Delta-E=       -0.000000000328 Rises=F Damp=F
 DIIS: error= 1.55D-07 at cycle  11 NSaved=  11.
 NSaved=11 IEnMin=11 EnMin= -389.155214015788     IErMin=11 ErrMin= 1.55D-07
 ErrMax= 1.55D-07  0.00D+00 EMaxC= 1.00D-01 BMatC= 9.53D-12 BMatP= 1.21D-10
 IDIUse=1 WtCom= 1.00D+00 WtEn= 0.00D+00
 Coeff-Com:  0.392D-06 0.847D-06 0.107D-05-0.149D-03-0.305D-03 0.277D-02
 Coeff-Com:  0.110D-01-0.152D-01-0.107D+00 0.164D+00 0.945D+00
 Coeff:      0.392D-06 0.847D-06 0.107D-05-0.149D-03-0.305D-03 0.277D-02
 Coeff:      0.110D-01-0.152D-01-0.107D+00 0.164D+00 0.945D+00
 Gap=     0.500 Goal=   None    Shift=    0.000
 RMSDP=2.76D-08 MaxDP=1.16D-06 DE=-3.28D-10 OVMax= 2.51D-06

 Cycle  12  Pass 1  IDiag  1:
 E= -389.155214015803     Delta-E=       -0.000000000015 Rises=F Damp=F
 DIIS: error= 3.64D-08 at cycle  12 NSaved=  12.
 NSaved=12 IEnMin=12 EnMin= -389.155214015803     IErMin=12 ErrMin= 3.64D-08
 ErrMax= 3.64D-08  0.00D+00 EMaxC= 1.00D-01 BMatC= 1.17D-12 BMatP= 9.53D-12
 IDIUse=1 WtCom= 1.00D+00 WtEn= 0.00D+00
 Coeff-Com: -0.102D-05 0.547D-05 0.429D-04 0.323D-05-0.342D-03-0.126D-02
 Coeff-Com:  0.366D-03 0.217D-01-0.321D-01-0.113D+00 0.985D-01 0.103D+01
 Coeff:     -0.102D-05 0.547D-05 0.429D-04 0.323D-05-0.342D-03-0.126D-02
 Coeff:      0.366D-03 0.217D-01-0.321D-01-0.113D+00 0.985D-01 0.103D+01
 Gap=     0.500 Goal=   None    Shift=    0.000
 RMSDP=1.18D-08 MaxDP=3.33D-07 DE=-1.48D-11 OVMax= 8.46D-07

 Cycle  13  Pass 1  IDiag  1:
 E= -389.155214015809     Delta-E=       -0.000000000006 Rises=F Damp=F
 DIIS: error= 1.06D-08 at cycle  13 NSaved=  13.
 NSaved=13 IEnMin=13 EnMin= -389.155214015809     IErMin=13 ErrMin= 1.06D-08
 ErrMax= 1.06D-08  0.00D+00 EMaxC= 1.00D-01 BMatC= 5.47D-14 BMatP= 1.17D-12
 IDIUse=1 WtCom= 1.00D+00 WtEn= 0.00D+00
 Coeff-Com: -0.122D-06 0.462D-06 0.389D-05 0.136D-04-0.170D-04-0.298D-03
 Coeff-Com: -0.848D-03 0.352D-02 0.516D-02-0.213D-01-0.612D-01 0.111D+00
 Coeff-Com:  0.964D+00
 Coeff:     -0.122D-06 0.462D-06 0.389D-05 0.136D-04-0.170D-04-0.298D-03
 Coeff:     -0.848D-03 0.352D-02 0.516D-02-0.213D-01-0.612D-01 0.111D+00
 Coeff:      0.964D+00
 Gap=     0.500 Goal=   None    Shift=    0.000
 RMSDP=2.12D-09 MaxDP=7.02D-08 DE=-5.91D-12 OVMax= 1.05D-07

 SCF Done:  E(RHF) =  -389.155214016     A.U. after   13 cycles
            NFock= 13  Conv=0.21D-08     -V/T= 2.0014
 KE= 3.886261435559D+02 PE=-1.937505122617D+03 EE= 6.432882273061D+02
 Leave Link  502 at Fri Sep 17 13:33:09 2021, MaxMem=   524288000 cpu:              23.4 elap:              23.9
 (Enter /opt/gaussian/g16_legacy/l801.exe)
 ExpMin= 1.61D-01 ExpMax= 3.05D+03 ExpMxC= 4.57D+02 IAcc=3 IRadAn=         5 AccDes= 0.00D+00
 HarFok:  IExCor=  205 AccDes= 0.00D+00 IRadAn=         5 IDoV=-2 UseB2=F ITyADJ=14
 ICtDFT= 12500011 ScaDFX=  1.000000  1.000000  1.000000  1.000000
 Largest valence mixing into a core orbital is  1.98D-04
 Largest core mixing into a valence orbital is  3.52D-05
 Range of M.O.s used for correlation:    11   240
 NBasis=   240 NAE=    39 NBE=    39 NFC=    10 NFV=     0
 NROrb=    230 NOA=    29 NOB=    29 NVA=   201 NVB=   201
 Leave Link  801 at Fri Sep 17 13:33:10 2021, MaxMem=   524288000 cpu:               0.9 elap:               1.1
 (Enter /opt/gaussian/g16_legacy/l906.exe)
 Frozen-core derivative calculation, NFC=  10 NFV=   0.
 FulOut=F Deriv=T AODrv=T NAtomX=    28
   MMem=          88  MDisk=          29 MDiskD=          29
  W3Min=     2246400 MinDsk=     2795480 NBas6D=         240
 NBas2D=       29244    NTT=       28920    LW2=     2040000
    MDV=   523626386 MDiskM=       30186 NBas2p=       24383
 Fully direct method using O(ONN) memory.
 IMap=   1   2   3   4   5   6   7   8   9  10  11  12  13  14  15  16  17  18  19  20
 IMap=  21  22  23  24  25  26  27  28  29  30  31  32  33  34  35  36  37  38  39
 JobTyp=1 Pass  1:  I=  11 to  39 NPSUse=  1 ParTrn=F ParDer=F DoDerP=T.
 Spin components of T(2) and E(2):
     alpha-alpha T2 =       0.5715094528D-01 E2=     -0.1638019791D+00
     alpha-beta  T2 =       0.3618113902D+00 E2=     -0.1089334140D+01
     beta-beta   T2 =       0.5715094528D-01 E2=     -0.1638019791D+00
 The integrals were generated   1 times.
 ANorm=    0.1214954024D+01
 E2 =    -0.1416938098D+01 EUMP2 =    -0.39057215211423D+03
 Leave Link  906 at Fri Sep 17 13:36:02 2021, MaxMem=   524288000 cpu:             171.8 elap:             172.0
 (Enter /opt/gaussian/g16_legacy/l1002.exe)
 Minotr:  Closed shell wavefunction.
          Computing MP2/KS-MP2 derivatives.
          Using Z-Vector for PSCF gradient.
          Skipping F1 and S1 gradient terms here.
          IDoAtm=1111111111111111111111111111
          Frozen-core window.
          Direct CPHF calculation.
          Differentiating once with respect to electric field.
                with respect to dipole field.
          Differentiating once with respect to nuclear coordinates.
          Requested convergence is 1.0D-10 RMS, and 1.0D-09 maximum.
          NewPWx=F KeepS1=T KeepF1=T KeepIn=T MapXYZ=F SortEE=F KeepMc=T.
 Keep R1 ints in memory in canonical form, NReq=425201067.
 FoFCou: FMM=F IPFlag=           0 FMFlag=           0 FMFlg1=           0
         NFxFlg=           0 DoJE=F BraDBF=F KetDBF=F FulRan=T
         wScrn=  0.000000 ICntrl=       600 IOpCl=  0 I1Cent=           0 NGrid=           0
         NMat0=    1 NMatS0=  28920 NMatT0=    0 NMatD0=    1 NMtDS0=    0 NMtDT0=    0
 Symmetry not used in FoFCou.
 Two-electron integral symmetry not used.
          MDV=     524288000 using IRadAn=       5.
          Solving linear equations separately, MaxMat=       0.
          There are     1 degrees of freedom in the 1st order CPHF.  IDoFFX=0 NUNeed=     1.
 LinEq1:  Iter=  0 NonCon=     1 RMS=2.55D-03 Max=3.75D-02 NDo=     1
 AX will form     1 AO Fock derivatives at one time.
 LinEq1:  Iter=  1 NonCon=     1 RMS=6.90D-04 Max=9.74D-03 NDo=     1
 LinEq1:  Iter=  2 NonCon=     1 RMS=1.61D-04 Max=4.14D-03 NDo=     1
 LinEq1:  Iter=  3 NonCon=     1 RMS=4.31D-05 Max=5.08D-04 NDo=     1
 LinEq1:  Iter=  4 NonCon=     1 RMS=1.99D-05 Max=8.55D-04 NDo=     1
 LinEq1:  Iter=  5 NonCon=     1 RMS=5.06D-06 Max=8.26D-05 NDo=     1
 LinEq1:  Iter=  6 NonCon=     1 RMS=1.63D-06 Max=2.68D-05 NDo=     1
 LinEq1:  Iter=  7 NonCon=     1 RMS=4.13D-07 Max=4.18D-06 NDo=     1
 LinEq1:  Iter=  8 NonCon=     1 RMS=1.01D-07 Max=1.86D-06 NDo=     1
 LinEq1:  Iter=  9 NonCon=     1 RMS=2.33D-08 Max=6.32D-07 NDo=     1
 LinEq1:  Iter= 10 NonCon=     1 RMS=6.42D-09 Max=1.62D-07 NDo=     1
 LinEq1:  Iter= 11 NonCon=     1 RMS=1.89D-09 Max=3.63D-08 NDo=     1
 LinEq1:  Iter= 12 NonCon=     1 RMS=4.16D-10 Max=7.84D-09 NDo=     1
 LinEq1:  Iter= 13 NonCon=     1 RMS=1.07D-10 Max=9.43D-10 NDo=     1
 LinEq1:  Iter= 14 NonCon=     1 RMS=4.41D-11 Max=1.62D-09 NDo=     1
 LinEq1:  Iter= 15 NonCon=     0 RMS=1.35D-11 Max=1.86D-10 NDo=     1
 Linear equations converged to 1.000D-10 1.000D-09 after    15 iterations.
 End of Minotr F.D. properties file   721 does not exist.
 End of Minotr F.D. properties file   722 does not exist.
 End of Minotr F.D. properties file   788 does not exist.
 Leave Link 1002 at Fri Sep 17 13:36:29 2021, MaxMem=   524288000 cpu:              26.8 elap:              26.8
 (Enter /opt/gaussian/g16_legacy/l601.exe)
 Copying SCF densities to generalized density rwf, IOpCl= 0 IROHF=0.

 **********************************************************************

            Population analysis using the SCF density.

 **********************************************************************

 Orbital symmetries:
       Occupied  (A) (A) (A) (A) (A) (A) (A) (A) (A) (A) (A) (A)
                 (A) (A) (A) (A) (A) (A) (A) (A) (A) (A) (A) (A)
                 (A) (A) (A) (A) (A) (A) (A) (A) (A) (A) (A) (A)
                 (A) (A) (A)
       Virtual   (A) (A) (A) (A) (A) (A) (A) (A) (A) (A) (A) (A)
                 (A) (A) (A) (A) (A) (A) (A) (A) (A) (A) (A) (A)
                 (A) (A) (A) (A) (A) (A) (A) (A) (A) (A) (A) (A)
                 (A) (A) (A) (A) (A) (A) (A) (A) (A) (A) (A) (A)
                 (A) (A) (A) (A) (A) (A) (A) (A) (A) (A) (A) (A)
                 (A) (A) (A) (A) (A) (A) (A) (A) (A) (A) (A) (A)
                 (A) (A) (A) (A) (A) (A) (A) (A) (A) (A) (A) (A)
                 (A) (A) (A) (A) (A) (A) (A) (A) (A) (A) (A) (A)
                 (A) (A) (A) (A) (A) (A) (A) (A) (A) (A) (A) (A)
                 (A) (A) (A) (A) (A) (A) (A) (A) (A) (A) (A) (A)
                 (A) (A) (A) (A) (A) (A) (A) (A) (A) (A) (A) (A)
                 (A) (A) (A) (A) (A) (A) (A) (A) (A) (A) (A) (A)
                 (A) (A) (A) (A) (A) (A) (A) (A) (A) (A) (A) (A)
                 (A) (A) (A) (A) (A) (A) (A) (A) (A) (A) (A) (A)
                 (A) (A) (A) (A) (A) (A) (A) (A) (A) (A) (A) (A)
                 (A) (A) (A) (A) (A) (A) (A) (A) (A) (A) (A) (A)
                 (A) (A) (A) (A) (A) (A) (A) (A) (A)
 The electronic state is 1-A.
 Alpha  occ. eigenvalues --  -11.23060 -11.22505 -11.21999 -11.21921 -11.21882
 Alpha  occ. eigenvalues --  -11.21650 -11.21553 -11.21484 -11.21457 -11.21437
 Alpha  occ. eigenvalues --   -1.10623  -1.08327  -1.01911  -0.98013  -0.93647
 Alpha  occ. eigenvalues --   -0.91775  -0.86756  -0.82685  -0.70598  -0.69342
 Alpha  occ. eigenvalues --   -0.64584  -0.61545  -0.60102  -0.59030  -0.58089
 Alpha  occ. eigenvalues --   -0.56803  -0.55368  -0.55149  -0.53549  -0.51981
 Alpha  occ. eigenvalues --   -0.51715  -0.51320  -0.50593  -0.49230  -0.48274
 Alpha  occ. eigenvalues --   -0.46015  -0.44272  -0.33357  -0.31526
 Alpha virt. eigenvalues --    0.18456   0.19494   0.22039   0.24453   0.25183
 Alpha virt. eigenvalues --    0.27141   0.28394   0.28932   0.30250   0.30504
 Alpha virt. eigenvalues --    0.31238   0.32117   0.33136   0.33436   0.34032
 Alpha virt. eigenvalues --    0.35677   0.35774   0.36970   0.38998   0.40648
 Alpha virt. eigenvalues --    0.41063   0.42593   0.43321   0.44190   0.45149
 Alpha virt. eigenvalues --    0.51684   0.54047   0.61170   0.62448   0.70139
 Alpha virt. eigenvalues --    0.71102   0.71886   0.74280   0.76417   0.76616
 Alpha virt. eigenvalues --    0.76877   0.78795   0.79454   0.81139   0.82035
 Alpha virt. eigenvalues --    0.83812   0.85656   0.88078   0.91266   0.92026
 Alpha virt. eigenvalues --    0.92898   0.95177   0.97056   0.98262   0.99206
 Alpha virt. eigenvalues --    0.99750   1.00201   1.02302   1.03926   1.06183
 Alpha virt. eigenvalues --    1.07862   1.08639   1.08809   1.11199   1.12389
 Alpha virt. eigenvalues --    1.12561   1.13432   1.14583   1.14927   1.15819
 Alpha virt. eigenvalues --    1.16164   1.16405   1.18224   1.18705   1.20092
 Alpha virt. eigenvalues --    1.20662   1.22068   1.22854   1.25019   1.27542
 Alpha virt. eigenvalues --    1.34171   1.40672   1.41851   1.43739   1.45173
 Alpha virt. eigenvalues --    1.47560   1.53477   1.56256   1.56979   1.58247
 Alpha virt. eigenvalues --    1.59847   1.62722   1.65798   1.69519   1.70791
 Alpha virt. eigenvalues --    1.75330   1.82526   1.92034   1.92193   1.95501
 Alpha virt. eigenvalues --    1.98629   2.01125   2.02849   2.04184   2.08701
 Alpha virt. eigenvalues --    2.09243   2.11121   2.11379   2.13101   2.14502
 Alpha virt. eigenvalues --    2.15426   2.17687   2.19725   2.23579   2.27384
 Alpha virt. eigenvalues --    2.28339   2.29995   2.32202   2.34975   2.35568
 Alpha virt. eigenvalues --    2.35646   2.35784   2.39326   2.39853   2.40352
 Alpha virt. eigenvalues --    2.41284   2.41830   2.43037   2.45164   2.45385
 Alpha virt. eigenvalues --    2.47031   2.48342   2.49335   2.50337   2.54527
 Alpha virt. eigenvalues --    2.56587   2.57722   2.61275   2.62184   2.64354
 Alpha virt. eigenvalues --    2.66341   2.67160   2.72034   2.72996   2.73746
 Alpha virt. eigenvalues --    2.75720   2.77698   2.81090   2.82805   2.85160
 Alpha virt. eigenvalues --    2.87731   2.89153   2.91918   2.93440   2.94437
 Alpha virt. eigenvalues --    2.97092   2.99036   3.01164   3.02601   3.05102
 Alpha virt. eigenvalues --    3.05824   3.06632   3.08509   3.13016   3.15941
 Alpha virt. eigenvalues --    3.17140   3.18164   3.19614   3.20679   3.21266
 Alpha virt. eigenvalues --    3.23192   3.24416   3.26465   3.27246   3.36667
 Alpha virt. eigenvalues --    3.39076   3.44609   3.45620   3.55553   3.57293
 Alpha virt. eigenvalues --    3.58698   3.61060   3.66890   3.73956   3.78202
 Alpha virt. eigenvalues --    3.78872   3.80512   3.81327   3.82334   3.82840
 Alpha virt. eigenvalues --    3.84213   3.85749   3.87658   3.89510   3.91175
 Alpha virt. eigenvalues --    3.95899   4.59095   4.62635   4.74428   4.82817
 Alpha virt. eigenvalues --    4.88837   4.92669   4.93352   5.07549   5.10288
 Alpha virt. eigenvalues --    5.16869
          Condensed to atoms (all electrons):
               1          2          3          4          5          6
     1  C    5.001824   0.412352   0.413505   0.340282  -0.058747  -0.003551
     2  H    0.412352   0.571664  -0.030225  -0.040531   0.003238  -0.000016
     3  H    0.413505  -0.030225   0.588503  -0.045052  -0.004692   0.002570
     4  C    0.340282  -0.040531  -0.045052   4.955040   0.349336  -0.043061
     5  C   -0.058747   0.003238  -0.004692   0.349336   4.896448   0.397383
     6  H   -0.003551  -0.000016   0.002570  -0.043061   0.397383   0.593598
     7  H   -0.000532  -0.000030  -0.000276  -0.045809   0.400284  -0.035013
     8  H    0.003676  -0.000103   0.000081  -0.041410   0.406169  -0.027604
     9  C   -0.044047  -0.002231   0.001917   0.698861  -0.045926  -0.000427
    10  H    0.003080   0.000060  -0.000114  -0.036528  -0.006483   0.000248
    11  C   -0.007062  -0.002134   0.000138  -0.050685   0.003424  -0.000114
    12  H   -0.001828  -0.001333   0.000004  -0.000417   0.000092  -0.000001
    13  H    0.000232  -0.000034  -0.000010   0.000592  -0.000100  -0.000004
    14  H    0.000227   0.000172   0.000028  -0.001412  -0.000116   0.000021
    15  C   -0.000101  -0.000042  -0.000000   0.000002  -0.000000  -0.000000
    16  H   -0.000003  -0.000002   0.000002   0.000000  -0.000000  -0.000000
    17  H    0.000022  -0.000005  -0.000001  -0.000000   0.000000  -0.000000
    18  H   -0.000004   0.000001   0.000000   0.000000  -0.000000   0.000000
    19  C   -0.003609   0.001046   0.000615   0.000006  -0.000002   0.000000
    20  C    0.000597   0.000160  -0.000016  -0.000017  -0.000000  -0.000000
    21  H   -0.000053  -0.000052  -0.000012  -0.000027  -0.000000  -0.000000
    22  H   -0.000041   0.000014   0.000000   0.000001  -0.000000   0.000000
    23  H    0.000077  -0.000076  -0.000001  -0.000002   0.000000  -0.000000
    24  C   -0.063070  -0.000806  -0.000607   0.006130  -0.000158   0.000001
    25  H    0.000005   0.000213   0.001003  -0.000155   0.000010  -0.000002
    26  C    0.326232  -0.039852  -0.044601  -0.057359  -0.000188   0.000027
    27  H   -0.040293  -0.002143   0.004202  -0.001436   0.000317   0.000012
    28  H   -0.045133   0.004290  -0.002604  -0.001850  -0.000392   0.000093
               7          8          9         10         11         12
     1  C   -0.000532   0.003676  -0.044047   0.003080  -0.007062  -0.001828
     2  H   -0.000030  -0.000103  -0.002231   0.000060  -0.002134  -0.001333
     3  H   -0.000276   0.000081   0.001917  -0.000114   0.000138   0.000004
     4  C   -0.045809  -0.041410   0.698861  -0.036528  -0.050685  -0.000417
     5  C    0.400284   0.406169  -0.045926  -0.006483   0.003424   0.000092
     6  H   -0.035013  -0.027604  -0.000427   0.000248  -0.000114  -0.000001
     7  H    0.594763  -0.028079  -0.001033   0.000123  -0.000100   0.000000
     8  H   -0.028079   0.571051  -0.002736   0.002223   0.000137   0.000004
     9  C   -0.001033  -0.002736   4.939932   0.404867   0.337722  -0.041945
    10  H    0.000123   0.002223   0.404867   0.559373  -0.043642   0.003316
    11  C   -0.000100   0.000137   0.337722  -0.043642   4.906219   0.408019
    12  H    0.000000   0.000004  -0.041945   0.003316   0.408019   0.573911
    13  H    0.000015  -0.000009  -0.042833  -0.002646   0.403015  -0.030014
    14  H   -0.000005  -0.000004  -0.044360  -0.000222   0.400027  -0.026860
    15  C   -0.000000   0.000000  -0.000000   0.000000  -0.000000   0.000000
    16  H   -0.000000   0.000000  -0.000000   0.000000   0.000000  -0.000000
    17  H    0.000000  -0.000000  -0.000000  -0.000000   0.000000  -0.000000
    18  H    0.000000   0.000000   0.000000   0.000000  -0.000000  -0.000000
    19  C    0.000000   0.000000   0.000001   0.000000   0.000007  -0.000013
    20  C   -0.000000  -0.000000   0.000010  -0.000000  -0.000097   0.000009
    21  H    0.000000   0.000000  -0.000032   0.000000   0.000040   0.000571
    22  H    0.000000   0.000000   0.000000   0.000000   0.000002  -0.000006
    23  H    0.000000  -0.000000   0.000000  -0.000000  -0.000003   0.000034
    24  C   -0.000086   0.000003   0.000070   0.000002  -0.000032   0.000003
    25  H    0.000012  -0.000000  -0.000002  -0.000000   0.000000  -0.000001
    26  C    0.000810  -0.000097  -0.004367  -0.000116   0.000690  -0.000212
    27  H   -0.000009  -0.000010   0.001215  -0.000044   0.000070  -0.000251
    28  H   -0.000187  -0.000025   0.000514   0.000004  -0.000030  -0.000008
              13         14         15         16         17         18
     1  C    0.000232   0.000227  -0.000101  -0.000003   0.000022  -0.000004
     2  H   -0.000034   0.000172  -0.000042  -0.000002  -0.000005   0.000001
     3  H   -0.000010   0.000028  -0.000000   0.000002  -0.000001   0.000000
     4  C    0.000592  -0.001412   0.000002   0.000000  -0.000000   0.000000
     5  C   -0.000100  -0.000116  -0.000000  -0.000000   0.000000  -0.000000
     6  H   -0.000004   0.000021  -0.000000  -0.000000  -0.000000   0.000000
     7  H    0.000015  -0.000005  -0.000000  -0.000000   0.000000   0.000000
     8  H   -0.000009  -0.000004   0.000000   0.000000  -0.000000   0.000000
     9  C   -0.042833  -0.044360  -0.000000  -0.000000  -0.000000   0.000000
    10  H   -0.002646  -0.000222   0.000000   0.000000  -0.000000   0.000000
    11  C    0.403015   0.400027  -0.000000   0.000000   0.000000  -0.000000
    12  H   -0.030014  -0.026860   0.000000  -0.000000  -0.000000  -0.000000
    13  H    0.586763  -0.033279  -0.000000  -0.000000   0.000000  -0.000000
    14  H   -0.033279   0.584269   0.000000  -0.000000  -0.000000   0.000000
    15  C   -0.000000   0.000000   4.903242   0.405425   0.396990   0.399260
    16  H   -0.000000  -0.000000   0.405425   0.568044  -0.027367  -0.027566
    17  H    0.000000  -0.000000   0.396990  -0.027367   0.594279  -0.034898
    18  H   -0.000000   0.000000   0.399260  -0.027566  -0.034898   0.593076
    19  C    0.000000  -0.000000   0.352283  -0.040397  -0.044300  -0.045756
    20  C   -0.000004   0.000002  -0.065376   0.003695  -0.002139  -0.001105
    21  H    0.000042  -0.000008   0.003678  -0.000108  -0.000072  -0.000023
    22  H   -0.000000   0.000000  -0.001684  -0.000079  -0.000371   0.002552
    23  H    0.000000  -0.000000  -0.003431   0.000010   0.002846  -0.000507
    24  C   -0.000004   0.000002  -0.044860  -0.002386  -0.000547  -0.001136
    25  H    0.000000   0.000000  -0.006750   0.002177   0.000235   0.000150
    26  C    0.000091  -0.000050   0.003153   0.000146  -0.000086  -0.000124
    27  H   -0.000079   0.000023   0.000071   0.000006  -0.000004   0.000004
    28  H    0.000000  -0.000000  -0.000102  -0.000011  -0.000002   0.000012
              19         20         21         22         23         24
     1  C   -0.003609   0.000597  -0.000053  -0.000041   0.000077  -0.063070
     2  H    0.001046   0.000160  -0.000052   0.000014  -0.000076  -0.000806
     3  H    0.000615  -0.000016  -0.000012   0.000000  -0.000001  -0.000607
     4  C    0.000006  -0.000017  -0.000027   0.000001  -0.000002   0.006130
     5  C   -0.000002  -0.000000  -0.000000  -0.000000   0.000000  -0.000158
     6  H    0.000000  -0.000000  -0.000000   0.000000  -0.000000   0.000001
     7  H    0.000000  -0.000000   0.000000   0.000000   0.000000  -0.000086
     8  H    0.000000  -0.000000   0.000000   0.000000  -0.000000   0.000003
     9  C    0.000001   0.000010  -0.000032   0.000000   0.000000   0.000070
    10  H    0.000000  -0.000000   0.000000   0.000000  -0.000000   0.000002
    11  C    0.000007  -0.000097   0.000040   0.000002  -0.000003  -0.000032
    12  H   -0.000013   0.000009   0.000571  -0.000006   0.000034   0.000003
    13  H    0.000000  -0.000004   0.000042  -0.000000   0.000000  -0.000004
    14  H   -0.000000   0.000002  -0.000008   0.000000  -0.000000   0.000002
    15  C    0.352283  -0.065376   0.003678  -0.001684  -0.003431  -0.044860
    16  H   -0.040397   0.003695  -0.000108  -0.000079   0.000010  -0.002386
    17  H   -0.044300  -0.002139  -0.000072  -0.000371   0.002846  -0.000547
    18  H   -0.045756  -0.001105  -0.000023   0.002552  -0.000507  -0.001136
    19  C    4.918225   0.348396  -0.037057  -0.043822  -0.043930   0.698182
    20  C    0.348396   4.909211   0.406151   0.398281   0.402443  -0.043323
    21  H   -0.037057   0.406151   0.568176  -0.026273  -0.030015  -0.002869
    22  H   -0.043822   0.398281  -0.026273   0.582498  -0.033102  -0.000842
    23  H   -0.043930   0.402443  -0.030015  -0.033102   0.586219   0.000448
    24  C    0.698182  -0.043323  -0.002869  -0.000842   0.000448   4.961485
    25  H   -0.036137   0.003365   0.000059  -0.000126  -0.000110   0.402019
    26  C   -0.048272  -0.007533  -0.001943   0.000188   0.000286   0.339921
    27  H    0.000822  -0.002064  -0.001169   0.000056  -0.000043  -0.043809
    28  H    0.000914   0.000169   0.000031   0.000032  -0.000012  -0.043346
              25         26         27         28
     1  C    0.000005   0.326232  -0.040293  -0.045133
     2  H    0.000213  -0.039852  -0.002143   0.004290
     3  H    0.001003  -0.044601   0.004202  -0.002604
     4  C   -0.000155  -0.057359  -0.001436  -0.001850
     5  C    0.000010  -0.000188   0.000317  -0.000392
     6  H   -0.000002   0.000027   0.000012   0.000093
     7  H    0.000012   0.000810  -0.000009  -0.000187
     8  H   -0.000000  -0.000097  -0.000010  -0.000025
     9  C   -0.000002  -0.004367   0.001215   0.000514
    10  H   -0.000000  -0.000116  -0.000044   0.000004
    11  C    0.000000   0.000690   0.000070  -0.000030
    12  H   -0.000001  -0.000212  -0.000251  -0.000008
    13  H    0.000000   0.000091  -0.000079   0.000000
    14  H    0.000000  -0.000050   0.000023  -0.000000
    15  C   -0.006750   0.003153   0.000071  -0.000102
    16  H    0.002177   0.000146   0.000006  -0.000011
    17  H    0.000235  -0.000086  -0.000004  -0.000002
    18  H    0.000150  -0.000124   0.000004   0.000012
    19  C   -0.036137  -0.048272   0.000822   0.000914
    20  C    0.003365  -0.007533  -0.002064   0.000169
    21  H    0.000059  -0.001943  -0.001169   0.000031
    22  H   -0.000126   0.000188   0.000056   0.000032
    23  H   -0.000110   0.000286  -0.000043  -0.000012
    24  C    0.402019   0.339921  -0.043809  -0.043346
    25  H    0.558503  -0.041270   0.003230  -0.003486
    26  C   -0.041270   4.982320   0.414876   0.413772
    27  H    0.003230   0.414876   0.571217  -0.029598
    28  H   -0.003486   0.413772  -0.029598   0.588490
 Mulliken charges:
               1
     1  C   -0.234035
     2  H    0.126404
     3  H    0.115642
     4  C    0.015504
     5  C   -0.339896
     6  H    0.115841
     7  H    0.115151
     8  H    0.116733
     9  C   -0.155171
    10  H    0.116500
    11  C   -0.355611
    12  H    0.116926
    13  H    0.118265
    14  H    0.121546
    15  C   -0.341757
    16  H    0.118415
    17  H    0.115420
    18  H    0.116064
    19  C    0.022797
    20  C   -0.350814
    21  H    0.120965
    22  H    0.122723
    23  H    0.118867
    24  C   -0.160386
    25  H    0.117059
    26  C   -0.236445
    27  H    0.124830
    28  H    0.118465
 Sum of Mulliken charges =  -0.00000
 Mulliken charges with hydrogens summed into heavy atoms:
               1
     1  C    0.008011
     4  C    0.015504
     5  C    0.007829
     9  C   -0.038671
    11  C    0.001126
    15  C    0.008141
    19  C    0.022797
    20  C    0.011741
    24  C   -0.043327
    26  C    0.006850
 Electronic spatial extent (au):  <R**2>=           2423.6461
 Charge=             -0.0000 electrons
 Dipole moment (field-independent basis, Debye):
    X=              0.2950    Y=              0.1263    Z=             -0.0061  Tot=              0.3209
 Quadrupole moment (field-independent basis, Debye-Ang):
   XX=            -64.5132   YY=            -63.6022   ZZ=            -67.0539
   XY=              0.6107   XZ=              0.8625   YZ=             -0.4858
 Traceless Quadrupole moment (field-independent basis, Debye-Ang):
   XX=              0.5432   YY=              1.4542   ZZ=             -1.9975
   XY=              0.6107   XZ=              0.8625   YZ=             -0.4858
 Octapole moment (field-independent basis, Debye-Ang**2):
  XXX=              1.3730  YYY=             -2.7187  ZZZ=              0.1843  XYY=             -0.5713
  XXY=              4.5369  XXZ=             -2.6541  XZZ=              1.5763  YZZ=              1.2282
  YYZ=              1.3693  XYZ=             -0.7512
 Hexadecapole moment (field-independent basis, Debye-Ang**3):
 XXXX=          -2492.3082 YYYY=           -696.1042 ZZZZ=           -174.8255 XXXY=             -2.3401
 XXXZ=             11.9297 YYYX=             -9.3563 YYYZ=             -3.0579 ZZZX=             -0.8366
 ZZZY=             -0.0658 XXYY=           -530.4625 XXZZ=           -456.3106 YYZZ=           -139.1729
 XXYZ=             -4.2456 YYXZ=              3.1966 ZZXY=              4.7001
 N-N= 5.164355377394D+02 E-N=-1.937505122729D+03  KE= 3.886261435559D+02
 No NMR shielding tensors so no spin-rotation constants.
 Leave Link  601 at Fri Sep 17 13:36:29 2021, MaxMem=   524288000 cpu:               0.2 elap:               0.2
 (Enter /opt/gaussian/g16_legacy/l701.exe)
 ... and contract with generalized density number  2.
 Compute integral first derivatives.
 Leave Link  701 at Fri Sep 17 13:36:29 2021, MaxMem=   524288000 cpu:               0.2 elap:               0.2
 (Enter /opt/gaussian/g16_legacy/l702.exe)
 L702 exits ... SP integral derivatives will be done elsewhere.
 Leave Link  702 at Fri Sep 17 13:36:29 2021, MaxMem=   524288000 cpu:               0.0 elap:               0.0
 (Enter /opt/gaussian/g16_legacy/l703.exe)
 Integral derivatives from FoFJK, PRISM(SPDF).
 Compute integral first derivatives, UseDBF=F ICtDFT=           0.
 Calling FoFJK, ICntrl=  10002127 FMM=F ISym2X=0 I1Cent= 0 IOpClX= 0 NMat=1 NMatS=1 NMatT=0.
 FoFJK:  IHMeth= 1 ICntrl=10002127 DoSepK=F KAlg= 0 I1Cent=           0 FoldK=F
 IRaf=         0 NMat=       1 IRICut=       1 DoRegI=T DoRafI=F ISym2E= 0 IDoP0=0 IntGTp=1.
 FoFCou: FMM=F IPFlag=           0 FMFlag=      100000 FMFlg1=         800
         NFxFlg=           0 DoJE=F BraDBF=F KetDBF=F FulRan=T
         wScrn=  0.000000 ICntrl=  10002127 IOpCl=  0 I1Cent=           0 NGrid=           0
         NMat0=    1 NMatS0=      1 NMatT0=    0 NMatD0=    1 NMtDS0=    0 NMtDT0=    0
 Symmetry not used in FoFCou.
 Leave Link  703 at Fri Sep 17 13:36:48 2021, MaxMem=   524288000 cpu:              18.8 elap:              18.8
 (Enter /opt/gaussian/g16_legacy/l716.exe)
 Dipole        = 9.11563916D-02 6.69336003D-02-4.82844102D-03
 ***** Axes restored to original set *****
 -------------------------------------------------------------------
 Center     Atomic                   Forces (Hartrees/Bohr)
 Number     Number              X              Y              Z
 -------------------------------------------------------------------
      1        6           0.007709553   -0.004464823    0.003185667
      2        1           0.000192424    0.003542123   -0.003009542
      3        1           0.001099960    0.001736183   -0.003224391
      4        6           0.001816974   -0.000950501    0.006135803
      5        6           0.003117858    0.000822745    0.000035541
      6        1          -0.000661337    0.002161426   -0.002481873
      7        1          -0.000759809   -0.000722996    0.003209020
      8        1          -0.003101658   -0.001996676   -0.001831203
      9        6          -0.001806164    0.002810950   -0.001706414
     10        1          -0.003198123    0.001523118    0.000555271
     11        6          -0.000979416   -0.001895923   -0.001720746
     12        1           0.001876506    0.001286558    0.002473963
     13        1          -0.000760237   -0.002420367    0.002301423
     14        1          -0.000004795   -0.000420167   -0.003416541
     15        6          -0.001489427    0.001537438    0.002649674
     16        1           0.003650475   -0.001288743   -0.001976900
     17        1          -0.000907561    0.001638718   -0.002971961
     18        1          -0.000152223   -0.002997046    0.001545435
     19        6          -0.001849373    0.000518680    0.004958930
     20        6           0.004513024    0.000416591    0.000463779
     21        1          -0.003054003    0.001587128    0.000073446
     22        1           0.000060801   -0.002933452    0.001020233
     23        1          -0.001204340    0.002813915   -0.002039505
     24        6           0.001867910    0.004368557   -0.002247005
     25        1          -0.000646467   -0.002733479   -0.001938592
     26        6          -0.006153785    0.000699747   -0.004889249
     27        1          -0.000809622   -0.002063679    0.003344781
     28        1           0.001632859   -0.002576026    0.001500955
 -------------------------------------------------------------------
 Cartesian Forces:  Max     0.007709553 RMS     0.002569223
 Leave Link  716 at Fri Sep 17 13:36:48 2021, MaxMem=   524288000 cpu:               0.0 elap:               0.0
 (Enter /opt/gaussian/g16_legacy/l103.exe)

 GradGradGradGradGradGradGradGradGradGradGradGradGradGradGradGradGradGrad
 Berny optimization.
 FormGI is forming the generalized inverse of G from B-inverse, IUseBI=4.
 Internal  Forces:  Max     0.004883464 RMS     0.001915559
 Search for a local minimum.
 Step number   1 out of a maximum of  138
 All quantities printed in internal units (Hartrees-Bohrs-Radians)
 RMS Force = .19156D-02 SwitMx=.10000D-02 MixMth= 1
 Mixed Optimization -- RFO/linear search
 Second derivative matrix not updated -- first step.
 ITU=  0
     Eigenvalues ---    0.00342   0.00569   0.00670   0.00679   0.00693
     Eigenvalues ---    0.00714   0.00818   0.01219   0.01286   0.01569
     Eigenvalues ---    0.01642   0.02780   0.02785   0.04018   0.04138
     Eigenvalues ---    0.05349   0.05399   0.06978   0.07035   0.07090
     Eigenvalues ---    0.07093   0.07269   0.07300   0.07347   0.07504
     Eigenvalues ---    0.09276   0.09361   0.12766   0.12842   0.15999
     Eigenvalues ---    0.15999   0.16000   0.16000   0.16000   0.16000
     Eigenvalues ---    0.16000   0.16000   0.16000   0.16000   0.16000
     Eigenvalues ---    0.16000   0.16000   0.16000   0.21859   0.21866
     Eigenvalues ---    0.22000   0.22000   0.24994   0.24997   0.24998
     Eigenvalues ---    0.24999   0.29234   0.30867   0.31628   0.31700
     Eigenvalues ---    0.31804   0.31969   0.32796   0.33862   0.33971
     Eigenvalues ---    0.34071   0.34191   0.34219   0.34229   0.34243
     Eigenvalues ---    0.34251   0.34254   0.34256   0.34267   0.34275
     Eigenvalues ---    0.34297   0.34333   0.34552   0.34554   0.34800
     Eigenvalues ---    0.34844   0.55507   0.55581
 RFO step:  Lambda=-2.95794222D-03 EMin= 3.41910420D-03
 Linear search not attempted -- first point.
 Iteration  1 RMS(Cart)=  0.03969792 RMS(Int)=  0.00072362
 Iteration  2 RMS(Cart)=  0.00093539 RMS(Int)=  0.00016640
 Iteration  3 RMS(Cart)=  0.00000043 RMS(Int)=  0.00016640
 ITry= 1 IFail=0 DXMaxC= 1.77D-01 DCOld= 1.00D+10 DXMaxT= 3.00D-01 DXLimC= 3.00D+00 Rises=F
 Variable       Old X    -DE/DX   Delta X   Delta X   Delta X     New X
                                 (Linear)    (Quad)   (Total)
    R1        2.07211  -0.00327   0.00000  -0.00952  -0.00952   2.06260
    R2        2.07564  -0.00281   0.00000  -0.00822  -0.00822   2.06742
    R3        2.86268  -0.00355   0.00000  -0.01139  -0.01139   2.85129
    R4        2.89517   0.00170   0.00000   0.00577   0.00577   2.90094
    R5        2.84830  -0.00048   0.00000  -0.00150  -0.00150   2.84679
    R6        2.54685  -0.00392   0.00000  -0.00703  -0.00703   2.53982
    R7        2.06900  -0.00213   0.00000  -0.00615  -0.00615   2.06284
    R8        2.06832  -0.00179   0.00000  -0.00518  -0.00518   2.06315
    R9        2.06963  -0.00373   0.00000  -0.01080  -0.01080   2.05882
   R10        2.05928  -0.00224   0.00000  -0.00636  -0.00636   2.05292
   R11        2.82711   0.00310   0.00000   0.00938   0.00938   2.83649
   R12        2.06405  -0.00290   0.00000  -0.00833  -0.00833   2.05573
   R13        2.06881  -0.00256   0.00000  -0.00741  -0.00741   2.06140
   R14        2.06772  -0.00159   0.00000  -0.00458  -0.00458   2.06314
   R15        2.06946  -0.00396   0.00000  -0.01146  -0.01146   2.05800
   R16        2.06903  -0.00196   0.00000  -0.00567  -0.00567   2.06336
   R17        2.06921  -0.00202   0.00000  -0.00586  -0.00586   2.06336
   R18        2.84696  -0.00081   0.00000  -0.00252  -0.00252   2.84444
   R19        2.84200  -0.00049   0.00000  -0.00153  -0.00153   2.84047
   R20        2.54619  -0.00322   0.00000  -0.00576  -0.00576   2.54043
   R21        2.06409  -0.00281   0.00000  -0.00806  -0.00806   2.05602
   R22        2.06869  -0.00181   0.00000  -0.00524  -0.00524   2.06345
   R23        2.07009  -0.00266   0.00000  -0.00771  -0.00771   2.06238
   R24        2.06002  -0.00197   0.00000  -0.00560  -0.00560   2.05441
   R25        2.84504  -0.00150   0.00000  -0.00468  -0.00468   2.84036
   R26        2.06908  -0.00275   0.00000  -0.00796  -0.00796   2.06113
   R27        2.07378  -0.00238   0.00000  -0.00695  -0.00695   2.06683
    A1        1.83000   0.00206   0.00000   0.02242   0.02225   1.85225
    A2        1.93012   0.00043   0.00000   0.00929   0.00933   1.93945
    A3        1.91837  -0.00278   0.00000  -0.02023  -0.02027   1.89811
    A4        1.90266  -0.00070   0.00000  -0.00274  -0.00274   1.89992
    A5        1.91999  -0.00194   0.00000  -0.01720  -0.01723   1.90276
    A6        1.95835   0.00283   0.00000   0.00912   0.00917   1.96751
    A7        2.00825   0.00238   0.00000   0.00972   0.00915   2.01740
    A8        2.17070  -0.00488   0.00000  -0.01894  -0.01947   2.15123
    A9        2.10405   0.00252   0.00000   0.01033   0.00975   2.11380
   A10        1.92484   0.00165   0.00000   0.00897   0.00899   1.93383
   A11        1.92803   0.00227   0.00000   0.01217   0.01219   1.94022
   A12        1.95922  -0.00262   0.00000  -0.01306  -0.01303   1.94620
   A13        1.89496  -0.00307   0.00000  -0.02469  -0.02468   1.87027
   A14        1.87764   0.00109   0.00000   0.01014   0.01017   1.88781
   A15        1.87701   0.00055   0.00000   0.00563   0.00567   1.88268
   A16        2.06969  -0.00194   0.00000  -0.01338  -0.01340   2.05629
   A17        2.22517  -0.00188   0.00000  -0.00842  -0.00843   2.21674
   A18        1.98819   0.00383   0.00000   0.02197   0.02195   2.01014
   A19        1.98123  -0.00299   0.00000  -0.01840  -0.01831   1.96291
   A20        1.91014   0.00236   0.00000   0.01549   0.01543   1.92557
   A21        1.91722   0.00395   0.00000   0.02331   0.02328   1.94050
   A22        1.87270   0.00053   0.00000   0.00493   0.00500   1.87770
   A23        1.89277  -0.00095   0.00000  -0.00756  -0.00746   1.88531
   A24        1.88715  -0.00309   0.00000  -0.01884  -0.01902   1.86813
   A25        1.87923   0.00092   0.00000   0.00935   0.00938   1.88861
   A26        1.87878   0.00092   0.00000   0.00795   0.00798   1.88677
   A27        1.96052  -0.00276   0.00000  -0.01377  -0.01373   1.94678
   A28        1.89489  -0.00313   0.00000  -0.02542  -0.02541   1.86948
   A29        1.92491   0.00220   0.00000   0.01236   0.01238   1.93729
   A30        1.92351   0.00173   0.00000   0.00870   0.00872   1.93223
   A31        1.99466   0.00147   0.00000   0.00583   0.00580   2.00046
   A32        2.10577   0.00183   0.00000   0.00729   0.00727   2.11304
   A33        2.18270  -0.00330   0.00000  -0.01300  -0.01302   2.16968
   A34        1.97974  -0.00222   0.00000  -0.01022  -0.01020   1.96954
   A35        1.92162   0.00230   0.00000   0.01167   0.01169   1.93331
   A36        1.92078   0.00000   0.00000  -0.00088  -0.00086   1.91992
   A37        1.88449   0.00023   0.00000   0.00324   0.00326   1.88775
   A38        1.86367   0.00200   0.00000   0.01700   0.01701   1.88068
   A39        1.89064  -0.00240   0.00000  -0.02158  -0.02156   1.86908
   A40        2.06717  -0.00168   0.00000  -0.01184  -0.01224   2.05493
   A41        2.22707  -0.00224   0.00000  -0.00989  -0.01030   2.21677
   A42        1.98881   0.00393   0.00000   0.02253   0.02210   2.01091
   A43        1.94444   0.00331   0.00000   0.01369   0.01372   1.95816
   A44        1.92600  -0.00264   0.00000  -0.02490  -0.02497   1.90103
   A45        1.92084  -0.00239   0.00000  -0.01474  -0.01494   1.90590
   A46        1.94665  -0.00053   0.00000  -0.00247  -0.00242   1.94423
   A47        1.88066   0.00060   0.00000   0.01703   0.01708   1.89774
   A48        1.84193   0.00155   0.00000   0.01189   0.01163   1.85356
    D1       -2.64267  -0.00174   0.00000  -0.05219  -0.05198  -2.69464
    D2        0.47837  -0.00076   0.00000   0.01014   0.00991   0.48828
    D3       -0.63948   0.00058   0.00000  -0.02166  -0.02142  -0.66090
    D4        2.48155   0.00156   0.00000   0.04067   0.04047   2.52203
[...]
                 (A) (A) (A) (A) (A) (A) (A) (A) (A) (A) (A) (A)
                 (A) (A) (A) (A) (A) (A) (A) (A) (A) (A) (A) (A)
                 (A) (A) (A) (A) (A) (A) (A) (A) (A) (A) (A) (A)
                 (A) (A) (A) (A) (A) (A) (A) (A) (A) (A) (A) (A)
                 (A) (A) (A) (A) (A) (A) (A) (A) (A) (A) (A) (A)
                 (A) (A) (A) (A) (A) (A) (A) (A) (A) (A) (A) (A)
                 (A) (A) (A) (A) (A) (A) (A) (A) (A) (A) (A) (A)
                 (A) (A) (A) (A) (A) (A) (A) (A) (A) (A) (A) (A)
                 (A) (A) (A) (A) (A) (A) (A) (A) (A) (A) (A) (A)
                 (A) (A) (A) (A) (A) (A) (A) (A) (A) (A) (A) (A)
                 (A) (A) (A) (A) (A) (A) (A) (A) (A) (A) (A) (A)
                 (A) (A) (A) (A) (A) (A) (A) (A) (A) (A) (A) (A)
                 (A) (A) (A) (A) (A) (A) (A) (A) (A) (A) (A) (A)
                 (A) (A) (A) (A) (A) (A) (A) (A) (A)
 The electronic state is 1-A.
 Alpha  occ. eigenvalues --  -11.23020 -11.22460 -11.21868 -11.21730 -11.21712
 Alpha  occ. eigenvalues --  -11.21539 -11.21506 -11.21436 -11.21417 -11.21348
 Alpha  occ. eigenvalues --   -1.10821  -1.08492  -1.01823  -0.98143  -0.93838
 Alpha  occ. eigenvalues --   -0.91939  -0.86963  -0.82855  -0.70494  -0.69519
 Alpha  occ. eigenvalues --   -0.64988  -0.61512  -0.60591  -0.58878  -0.58366
 Alpha  occ. eigenvalues --   -0.56774  -0.55298  -0.54966  -0.53295  -0.52261
 Alpha  occ. eigenvalues --   -0.51859  -0.51173  -0.50832  -0.49581  -0.48519
 Alpha  occ. eigenvalues --   -0.46073  -0.44624  -0.33371  -0.31514
 Alpha virt. eigenvalues --    0.18142   0.19779   0.22152   0.24486   0.25192
 Alpha virt. eigenvalues --    0.27439   0.28535   0.28922   0.30318   0.30811
 Alpha virt. eigenvalues --    0.31477   0.32261   0.33202   0.33794   0.34383
 Alpha virt. eigenvalues --    0.35458   0.36114   0.36962   0.39185   0.40602
 Alpha virt. eigenvalues --    0.41328   0.42631   0.43685   0.44253   0.45395
 Alpha virt. eigenvalues --    0.51702   0.54378   0.61070   0.62576   0.70520
 Alpha virt. eigenvalues --    0.71073   0.72196   0.73768   0.76075   0.76177
 Alpha virt. eigenvalues --    0.76620   0.79010   0.79474   0.81070   0.82306
 Alpha virt. eigenvalues --    0.83713   0.85579   0.89117   0.91091   0.91343
 Alpha virt. eigenvalues --    0.92820   0.94745   0.97065   0.98284   0.98818
 Alpha virt. eigenvalues --    0.99710   1.00468   1.01911   1.03844   1.06577
 Alpha virt. eigenvalues --    1.08019   1.08221   1.09393   1.11664   1.12687
 Alpha virt. eigenvalues --    1.13026   1.13870   1.14856   1.15402   1.16045
 Alpha virt. eigenvalues --    1.16257   1.16619   1.18722   1.19116   1.20671
 Alpha virt. eigenvalues --    1.20953   1.23032   1.23885   1.25765   1.28153
 Alpha virt. eigenvalues --    1.34331   1.41723   1.42153   1.44890   1.46395
 Alpha virt. eigenvalues --    1.48456   1.54136   1.55360   1.57256   1.58165
 Alpha virt. eigenvalues --    1.61459   1.63397   1.66485   1.69046   1.69645
 Alpha virt. eigenvalues --    1.73917   1.82243   1.91111   1.93363   1.96231
 Alpha virt. eigenvalues --    1.98688   2.01467   2.02277   2.03942   2.08565
 Alpha virt. eigenvalues --    2.09706   2.10748   2.11744   2.13037   2.14903
 Alpha virt. eigenvalues --    2.15780   2.16940   2.19854   2.23666   2.28347
 Alpha virt. eigenvalues --    2.29590   2.30325   2.33235   2.35347   2.35688
 Alpha virt. eigenvalues --    2.35978   2.36098   2.38923   2.40264   2.41259
 Alpha virt. eigenvalues --    2.42195   2.43169   2.44154   2.45371   2.46084
 Alpha virt. eigenvalues --    2.47201   2.49167   2.49622   2.51174   2.54099
 Alpha virt. eigenvalues --    2.57315   2.58365   2.61888   2.63241   2.64107
 Alpha virt. eigenvalues --    2.67127   2.68175   2.71776   2.73352   2.73474
 Alpha virt. eigenvalues --    2.75815   2.77410   2.80796   2.82634   2.85354
 Alpha virt. eigenvalues --    2.87137   2.89441   2.92178   2.93739   2.94867
 Alpha virt. eigenvalues --    2.97869   2.99094   3.00960   3.02677   3.05807
 Alpha virt. eigenvalues --    3.06402   3.07703   3.09315   3.13762   3.17093
 Alpha virt. eigenvalues --    3.17589   3.19238   3.20046   3.21242   3.22334
 Alpha virt. eigenvalues --    3.24167   3.25050   3.26607   3.27420   3.37866
 Alpha virt. eigenvalues --    3.40355   3.46023   3.46902   3.56200   3.58183
 Alpha virt. eigenvalues --    3.59499   3.62406   3.67928   3.75494   3.78622
 Alpha virt. eigenvalues --    3.80005   3.81570   3.82569   3.83286   3.83898
 Alpha virt. eigenvalues --    3.84750   3.86481   3.87645   3.89820   3.91558
 Alpha virt. eigenvalues --    3.97645   4.59389   4.63170   4.74472   4.82572
 Alpha virt. eigenvalues --    4.88928   4.92582   4.93409   5.07840   5.10766
 Alpha virt. eigenvalues --    5.17766
          Condensed to atoms (all electrons):
               1          2          3          4          5          6
     1  C    5.004767   0.411715   0.414473   0.337355  -0.056085  -0.003698
     2  H    0.411715   0.572983  -0.028296  -0.038988   0.003071  -0.000034
     3  H    0.414473  -0.028296   0.587507  -0.046308  -0.004587   0.002378
     4  C    0.337355  -0.038988  -0.046308   4.952603   0.351934  -0.041506
     5  C   -0.056085   0.003071  -0.004587   0.351934   4.891804   0.397495
     6  H   -0.003698  -0.000034   0.002378  -0.041506   0.397495   0.591921
     7  H    0.000011  -0.000005  -0.000489  -0.045679   0.400946  -0.037541
     8  H    0.003801  -0.000108   0.000106  -0.042765   0.407087  -0.026764
     9  C   -0.047991  -0.001860   0.002531   0.697840  -0.046054  -0.000373
    10  H    0.003272   0.000031  -0.000118  -0.037842  -0.006525   0.000216
    11  C   -0.007749  -0.002811   0.000160  -0.050271   0.003364  -0.000105
    12  H   -0.001745  -0.001657   0.000030  -0.000691   0.000109   0.000002
    13  H    0.000310  -0.000067  -0.000013  -0.000247  -0.000095  -0.000004
    14  H    0.000152   0.000184   0.000017  -0.000627  -0.000106   0.000017
    15  C   -0.000099  -0.000043  -0.000004   0.000001  -0.000000  -0.000000
    16  H   -0.000003  -0.000002   0.000003   0.000000  -0.000000  -0.000000
    17  H    0.000024  -0.000007  -0.000002  -0.000000   0.000000  -0.000000
    18  H   -0.000005   0.000002   0.000000   0.000000  -0.000000   0.000000
    19  C   -0.004325   0.001388   0.000787   0.000041  -0.000003   0.000000
    20  C    0.000587   0.000200  -0.000015  -0.000018  -0.000000   0.000000
    21  H   -0.000302  -0.000131  -0.000016  -0.000011  -0.000000  -0.000000
    22  H   -0.000040   0.000022   0.000000   0.000001  -0.000000   0.000000
    23  H    0.000130  -0.000135  -0.000002  -0.000005   0.000000  -0.000000
    24  C   -0.061827  -0.000504  -0.000900   0.006443  -0.000149   0.000004
    25  H    0.000175   0.000111   0.001011  -0.000152   0.000010  -0.000001
    26  C    0.332330  -0.041801  -0.046074  -0.055544  -0.000661   0.000086
    27  H   -0.042370  -0.003118   0.004477  -0.001813   0.000243   0.000006
    28  H   -0.046841   0.004515  -0.001931  -0.002075  -0.000289   0.000058
               7          8          9         10         11         12
     1  C    0.000011   0.003801  -0.047991   0.003272  -0.007749  -0.001745
     2  H   -0.000005  -0.000108  -0.001860   0.000031  -0.002811  -0.001657
     3  H   -0.000489   0.000106   0.002531  -0.000118   0.000160   0.000030
     4  C   -0.045679  -0.042765   0.697840  -0.037842  -0.050271  -0.000691
     5  C    0.400946   0.407087  -0.046054  -0.006525   0.003364   0.000109
     6  H   -0.037541  -0.026764  -0.000373   0.000216  -0.000105   0.000002
     7  H    0.596034  -0.027466  -0.001011   0.000135  -0.000101  -0.000003
     8  H   -0.027466   0.568858  -0.002890   0.002385   0.000132   0.000005
     9  C   -0.001011  -0.002890   4.938970   0.404494   0.340494  -0.043903
    10  H    0.000135   0.002385   0.404494   0.558671  -0.041279   0.003299
    11  C   -0.000101   0.000132   0.340494  -0.041279   4.900974   0.409079
    12  H   -0.000003   0.000005  -0.043903   0.003299   0.409079   0.577164
    13  H    0.000017  -0.000006  -0.041805  -0.001264   0.402169  -0.029956
    14  H   -0.000004  -0.000006  -0.041523  -0.001122   0.401144  -0.027132
    15  C   -0.000000   0.000000  -0.000000   0.000000  -0.000000   0.000000
    16  H   -0.000000   0.000000  -0.000000   0.000000   0.000000  -0.000000
    17  H    0.000000  -0.000000   0.000000  -0.000000  -0.000000  -0.000000
    18  H    0.000000   0.000000   0.000000   0.000000   0.000000  -0.000000
    19  C    0.000000   0.000000  -0.000001   0.000000   0.000013  -0.000026
    20  C   -0.000000  -0.000000   0.000015  -0.000000  -0.000147  -0.000000
    21  H    0.000000   0.000000  -0.000045   0.000000   0.000074   0.000412
    22  H   -0.000000   0.000000   0.000000   0.000000   0.000003  -0.000008
    23  H    0.000000  -0.000000   0.000000  -0.000000  -0.000009   0.000079
    24  C   -0.000111   0.000004   0.000114   0.000002  -0.000031   0.000026
    25  H    0.000015  -0.000000  -0.000002  -0.000000   0.000000  -0.000002
    26  C    0.000609  -0.000109  -0.004911  -0.000113   0.000577  -0.000737
    27  H   -0.000015  -0.000005   0.001406  -0.000046  -0.000082  -0.000475
    28  H    0.000197  -0.000050   0.000760   0.000001  -0.000033  -0.000010
              13         14         15         16         17         18
     1  C    0.000310   0.000152  -0.000099  -0.000003   0.000024  -0.000005
     2  H   -0.000067   0.000184  -0.000043  -0.000002  -0.000007   0.000002
     3  H   -0.000013   0.000017  -0.000004   0.000003  -0.000002   0.000000
     4  C   -0.000247  -0.000627   0.000001   0.000000  -0.000000   0.000000
     5  C   -0.000095  -0.000106  -0.000000  -0.000000   0.000000  -0.000000
     6  H   -0.000004   0.000017  -0.000000  -0.000000  -0.000000   0.000000
     7  H    0.000017  -0.000004  -0.000000  -0.000000   0.000000   0.000000
     8  H   -0.000006  -0.000006   0.000000   0.000000  -0.000000   0.000000
     9  C   -0.041805  -0.041523  -0.000000  -0.000000   0.000000   0.000000
    10  H   -0.001264  -0.001122   0.000000   0.000000  -0.000000   0.000000
    11  C    0.402169   0.401144  -0.000000   0.000000  -0.000000   0.000000
    12  H   -0.029956  -0.027132   0.000000  -0.000000  -0.000000  -0.000000
    13  H    0.586720  -0.035462  -0.000000  -0.000000   0.000000  -0.000000
    14  H   -0.035462   0.583648   0.000000  -0.000000  -0.000000   0.000000
    15  C   -0.000000   0.000000   4.900112   0.406218   0.398238   0.398811
    16  H   -0.000000  -0.000000   0.406218   0.566018  -0.026703  -0.026549
    17  H    0.000000  -0.000000   0.398238  -0.026703   0.594542  -0.037806
    18  H   -0.000000   0.000000   0.398811  -0.026549  -0.037806   0.593607
    19  C    0.000001  -0.000000   0.353753  -0.041639  -0.043899  -0.044274
    20  C   -0.000015   0.000004  -0.064931   0.003785  -0.001975  -0.001201
    21  H    0.000114  -0.000013   0.003725  -0.000113  -0.000068  -0.000031
    22  H   -0.000000   0.000000  -0.002223  -0.000053  -0.000456   0.002766
    23  H    0.000000  -0.000000  -0.002632  -0.000032   0.002756  -0.000476
    24  C   -0.000009   0.000002  -0.044415  -0.002632  -0.000422  -0.001270
    25  H    0.000000   0.000000  -0.006963   0.002335   0.000182   0.000187
    26  C    0.000163  -0.000037   0.003126   0.000148  -0.000068  -0.000131
    27  H   -0.000140   0.000037   0.000051   0.000007  -0.000005   0.000007
    28  H   -0.000000  -0.000000  -0.000094  -0.000010  -0.000002   0.000009
              19         20         21         22         23         24
     1  C   -0.004325   0.000587  -0.000302  -0.000040   0.000130  -0.061827
     2  H    0.001388   0.000200  -0.000131   0.000022  -0.000135  -0.000504
     3  H    0.000787  -0.000015  -0.000016   0.000000  -0.000002  -0.000900
     4  C    0.000041  -0.000018  -0.000011   0.000001  -0.000005   0.006443
     5  C   -0.000003  -0.000000  -0.000000  -0.000000   0.000000  -0.000149
     6  H    0.000000   0.000000  -0.000000   0.000000  -0.000000   0.000004
     7  H    0.000000  -0.000000   0.000000  -0.000000   0.000000  -0.000111
     8  H    0.000000  -0.000000   0.000000   0.000000  -0.000000   0.000004
     9  C   -0.000001   0.000015  -0.000045   0.000000   0.000000   0.000114
    10  H    0.000000  -0.000000   0.000000   0.000000  -0.000000   0.000002
    11  C    0.000013  -0.000147   0.000074   0.000003  -0.000009  -0.000031
    12  H   -0.000026  -0.000000   0.000412  -0.000008   0.000079   0.000026
    13  H    0.000001  -0.000015   0.000114  -0.000000   0.000000  -0.000009
    14  H   -0.000000   0.000004  -0.000013   0.000000  -0.000000   0.000002
    15  C    0.353753  -0.064931   0.003725  -0.002223  -0.002632  -0.044415
    16  H   -0.041639   0.003785  -0.000113  -0.000053  -0.000032  -0.002632
    17  H   -0.043899  -0.001975  -0.000068  -0.000456   0.002756  -0.000422
    18  H   -0.044274  -0.001201  -0.000031   0.002766  -0.000476  -0.001270
    19  C    4.914192   0.350333  -0.037848  -0.043537  -0.043385   0.697734
    20  C    0.350333   4.907254   0.407154   0.399852   0.401208  -0.044248
    21  H   -0.037848   0.407154   0.568221  -0.026060  -0.028659  -0.003253
    22  H   -0.043537   0.399852  -0.026060   0.584669  -0.035759  -0.000365
    23  H   -0.043385   0.401208  -0.028659  -0.035759   0.587442  -0.000031
    24  C    0.697734  -0.044248  -0.003253  -0.000365  -0.000031   4.962747
    25  H   -0.038449   0.003528   0.000061  -0.000121  -0.000121   0.403391
    26  C   -0.050100  -0.008144  -0.002069   0.000117   0.000367   0.338699
    27  H    0.000438  -0.002693  -0.001675   0.000113  -0.000076  -0.044060
    28  H    0.001583   0.000195   0.000058   0.000021  -0.000014  -0.041394
              25         26         27         28
     1  C    0.000175   0.332330  -0.042370  -0.046841
     2  H    0.000111  -0.041801  -0.003118   0.004515
     3  H    0.001011  -0.046074   0.004477  -0.001931
     4  C   -0.000152  -0.055544  -0.001813  -0.002075
     5  C    0.000010  -0.000661   0.000243  -0.000289
     6  H   -0.000001   0.000086   0.000006   0.000058
     7  H    0.000015   0.000609  -0.000015   0.000197
     8  H   -0.000000  -0.000109  -0.000005  -0.000050
     9  C   -0.000002  -0.004911   0.001406   0.000760
    10  H   -0.000000  -0.000113  -0.000046   0.000001
    11  C    0.000000   0.000577  -0.000082  -0.000033
    12  H   -0.000002  -0.000737  -0.000475  -0.000010
    13  H    0.000000   0.000163  -0.000140  -0.000000
    14  H    0.000000  -0.000037   0.000037  -0.000000
    15  C   -0.006963   0.003126   0.000051  -0.000094
    16  H    0.002335   0.000148   0.000007  -0.000010
    17  H    0.000182  -0.000068  -0.000005  -0.000002
    18  H    0.000187  -0.000131   0.000007   0.000009
    19  C   -0.038449  -0.050100   0.000438   0.001583
    20  C    0.003528  -0.008144  -0.002693   0.000195
    21  H    0.000061  -0.002069  -0.001675   0.000058
    22  H   -0.000121   0.000117   0.000113   0.000021
    23  H   -0.000121   0.000367  -0.000076  -0.000014
    24  C    0.403391   0.338699  -0.044060  -0.041394
    25  H    0.557389  -0.039113   0.003152  -0.003424
    26  C   -0.039113   4.979544   0.415850   0.413482
    27  H    0.003152   0.415850   0.575347  -0.028362
    28  H   -0.003424   0.413482  -0.028362   0.585267
 Mulliken charges:
               1
     1  C   -0.236021
     2  H    0.125346
     3  H    0.115272
     4  C    0.018322
     5  C   -0.341505
     6  H    0.117844
     7  H    0.114461
     8  H    0.117792
     9  C   -0.154256
    10  H    0.115801
    11  C   -0.355567
    12  H    0.116140
    13  H    0.119588
    14  H    0.120830
    15  C   -0.342631
    16  H    0.119222
    17  H    0.115672
    18  H    0.116356
    19  C    0.027222
    20  C   -0.350727
    21  H    0.120474
    22  H    0.121058
    23  H    0.119352
    24  C   -0.163543
    25  H    0.116803
    26  C   -0.235486
    27  H    0.123802
    28  H    0.118380
 Sum of Mulliken charges =  -0.00000
 Mulliken charges with hydrogens summed into heavy atoms:
               1
     1  C    0.004596
     4  C    0.018322
     5  C    0.008593
     9  C   -0.038454
    11  C    0.000991
    15  C    0.008618
    19  C    0.027222
    20  C    0.010156
    24  C   -0.046740
    26  C    0.006696
 Electronic spatial extent (au):  <R**2>=           2384.0058
 Charge=             -0.0000 electrons
 Dipole moment (field-independent basis, Debye):
    X=              0.3027    Y=              0.1253    Z=              0.0460  Tot=              0.3308
 Quadrupole moment (field-independent basis, Debye-Ang):
   XX=            -64.3024   YY=            -63.2901   ZZ=            -67.3956
   XY=              0.7521   XZ=              1.2367   YZ=             -0.3487
 Traceless Quadrupole moment (field-independent basis, Debye-Ang):
   XX=              0.6937   YY=              1.7059   ZZ=             -2.3996
   XY=              0.7521   XZ=              1.2367   YZ=             -0.3487
 Octapole moment (field-independent basis, Debye-Ang**2):
  XXX=              2.6682  YYY=             -2.9989  ZZZ=              0.8999  XYY=             -0.6415
  XXY=              4.0909  XXZ=             -2.0918  XZZ=              1.2120  YZZ=              1.4955
  YYZ=              0.6111  XYZ=             -0.3641
 Hexadecapole moment (field-independent basis, Debye-Ang**3):
 XXXX=          -2435.7158 YYYY=           -693.4925 ZZZZ=           -166.6416 XXXY=              2.3046
 XXXZ=             14.7514 YYYX=            -11.0526 YYYZ=             -1.4214 ZZZX=              2.8119
 ZZZY=             -0.6411 XXYY=           -520.1245 XXZZ=           -449.2339 YYZZ=           -138.3649
 XXYZ=             -4.2785 YYXZ=              0.5785 ZZXY=              5.9188
 N-N= 5.190880054258D+02 E-N=-1.942888750145D+03  KE= 3.887471640849D+02
 No NMR shielding tensors so no spin-rotation constants.
 Leave Link  601 at Fri Sep 17 14:22:13 2021, MaxMem=   524288000 cpu:               0.2 elap:               0.4
 (Enter /opt/gaussian/g16_legacy/l9999.exe)
 1\1\GINC-TRUENO93\FOpt\RMP2-FC\6-31G(d,p)\C10H18\JRAMOS\17-Sep-2021\0\
 \#p opt mp2/6-31g(d,p)\\Conformer number 1352. Energy MM = 23.242 kcal
 /mol\\0,1\C,0.2612055906,0.2299835023,1.1171373095\H,0.180564866,-0.85
 03042969,0.9867887712\H,-0.3974968656,0.4869261175,1.9517505442\C,1.67
 30015608,0.6435266929,1.4486538028\C,1.8039254414,1.8679751081,2.31296
 65435\H,1.3640188569,1.6968235674,3.2978596135\H,1.2756598751,2.716476
 1476,1.8724456938\H,2.846540859,2.1526557781,2.4487205385\C,2.76221443
 4,0.0113531496,0.9733394889\H,3.7355878535,0.4064240642,1.2508396163\C
 ,2.7876267429,-1.1969546515,0.0871743935\H,1.7890702073,-1.5439352871,
 -0.1687051482\H,3.3126795195,-0.9798538438,-0.8449697788\H,3.318809835
 7,-2.0218190166,0.5659278377\C,-3.6528236013,-0.6106721651,-1.37550350
 7\H,-4.2268974999,0.0764206281,-0.7557445485\H,-3.9133609598,-1.631597
 4541,-1.0873367846\H,-3.9710994934,-0.4836369679,-2.4127387683\C,-2.17
 39738562,-0.3754171331,-1.2372727531\C,-1.3120868618,-1.2860659857,-2.
 0671722616\H,-0.2487788631,-1.1127429456,-1.9219863722\H,-1.5362423542
 ,-1.1633195958,-3.129181943\H,-1.5199804562,-2.3292658605,-1.819483419
 2\C,-1.699828905,0.5886330879,-0.4257560359\H,-2.4251451796,1.16755767
 29,0.1404554763\C,-0.2604470976,0.9163005624,-0.1598632278\H,0.3768444
 679,0.6260169518,-0.9960622568\H,-0.1493881167,1.9986121729,-0.0525828
 247\\Version=EM64L-G16RevA.03\State=1-A\HF=-389.1567534\MP2=-390.57386
 46\RMSD=5.145e-09\RMSF=3.214e-06\Dipole=-0.0527011,-0.0751409,-0.07135
 78\PG=C01 [X(C10H18)]\\@


 I DON'T PRETEND TO UNDERSTAND THE UNIVERSE --
 IT'S A GREAT DEAL BIGGER THAN I AM.
       -- ATTR. TO WILLIAM ALLINGHAM (1828-89)
 Job cpu time:       0 days  0 hours 49 minutes 31.3 seconds.
 Elapsed time:       0 days  0 hours 49 minutes 36.3 seconds.
 File lengths (MBytes):  RWF=     32 Int=      0 D2E=      0 Chk=      7 Scr=      1
 Normal termination of Gaussian 16 at Fri Sep 17 14:22:13 2021.
