 Entering Gaussian System, Link 0=/opt/gaussian/g16_legacy/g16
 Input=01-IsoP_608_gaussian.com
 Output=01-IsoP_608_gaussian.log
 Initial command:
 /opt/gaussian/g16_legacy/l1.exe "/scratch-local/jramos/2661428/Gau-15825.inp" -scrdir="/scratch-local/jramos/2661428/"
 Entering Link 1 = /opt/gaussian/g16_legacy/l1.exe PID=     15826.
  
 Copyright (c) 1988,1990,1992,1993,1995,1998,2003,2009,2016,
            Gaussian, Inc.  All Rights Reserved.
  
 This is part of the Gaussian(R) 16 program.  It is based on
 the Gaussian(R) 09 system (copyright 2009, Gaussian, Inc.),
 the Gaussian(R) 03 system (copyright 2003, Gaussian, Inc.),
 the Gaussian(R) 98 system (copyright 1998, Gaussian, Inc.),
 the Gaussian(R) 94 system (copyright 1995, Gaussian, Inc.),
 the Gaussian 92(TM) system (copyright 1992, Gaussian, Inc.),
 the Gaussian 90(TM) system (copyright 1990, Gaussian, Inc.),
 the Gaussian 88(TM) system (copyright 1988, Gaussian, Inc.),
 the Gaussian 86(TM) system (copyright 1986, Carnegie Mellon
 University), and the Gaussian 82(TM) system (copyright 1983,
 Carnegie Mellon University). Gaussian is a federally registered
 trademark of Gaussian, Inc.
  
 This software contains proprietary and confidential information,
 including trade secrets, belonging to Gaussian, Inc.
  
 This software is provided under written license and may be
 used, copied, transmitted, or stored only in accord with that
 written license.
  
 The following legend is applicable only to US Government
 contracts under FAR:
  
                    RESTRICTED RIGHTS LEGEND
  
 Use, reproduction and disclosure by the US Government is
 subject to restrictions as set forth in subparagraphs (a)
 and (c) of the Commercial Computer Software - Restricted
 Rights clause in FAR 52.227-19.
  
 Gaussian, Inc.
 340 Quinnipiac St., Bldg. 40, Wallingford CT 06492
  
  
 ---------------------------------------------------------------
 Warning -- This program may not be used in any manner that
 competes with the business of Gaussian, Inc. or will provide
 assistance to any competitor of Gaussian, Inc.  The licensee
 of this program is prohibited from giving any competitor of
 Gaussian, Inc. access to this program.  By using this program,
 the user acknowledges that Gaussian, Inc. is engaged in the
 business of creating and licensing software in the field of
 computational chemistry and represents and warrants to the
 licensee that it is not a competitor of Gaussian, Inc. and that
 it will not use this program in any manner prohibited above.
 ---------------------------------------------------------------
  

 Cite this work as:
 Gaussian 16, Revision A.03,
 M. J. Frisch, G. W. Trucks, H. B. Schlegel, G. E. Scuseria, 
 M. A. Robb, J. R. Cheeseman, G. Scalmani, V. Barone, 
 G. A. Petersson, H. Nakatsuji, X. Li, M. Caricato, A. V. Marenich, 
 J. Bloino, B. G. Janesko, R. Gomperts, B. Mennucci, H. P. Hratchian, 
 J. V. Ortiz, A. F. Izmaylov, J. L. Sonnenberg, D. Williams-Young, 
 F. Ding, F. Lipparini, F. Egidi, J. Goings, B. Peng, A. Petrone, 
 T. Henderson, D. Ranasinghe, V. G. Zakrzewski, J. Gao, N. Rega, 
 G. Zheng, W. Liang, M. Hada, M. Ehara, K. Toyota, R. Fukuda, 
 J. Hasegawa, M. Ishida, T. Nakajima, Y. Honda, O. Kitao, H. Nakai, 
 T. Vreven, K. Throssell, J. A. Montgomery, Jr., J. E. Peralta, 
 F. Ogliaro, M. J. Bearpark, J. J. Heyd, E. N. Brothers, K. N. Kudin, 
 V. N. Staroverov, T. A. Keith, R. Kobayashi, J. Normand, 
 K. Raghavachari, A. P. Rendell, J. C. Burant, S. S. Iyengar, 
 J. Tomasi, M. Cossi, J. M. Millam, M. Klene, C. Adamo, R. Cammi, 
 J. W. Ochterski, R. L. Martin, K. Morokuma, O. Farkas, 
 J. B. Foresman, and D. J. Fox, Gaussian, Inc., Wallingford CT, 2016.
 
 ******************************************
 Gaussian 16:  EM64L-G16RevA.03 25-Dec-2016
                17-Sep-2021 
 ******************************************
 %chk=01-IsoP_608_gaussian.chk
 %nproc=1
 Will use up to    1 processors via shared memory.
 %mem=4000Mb
 ---------------------
 #p opt mp2/6-31g(d,p)
 ---------------------
 1/18=20,19=15,38=1/1,3;
 2/9=110,12=2,17=6,18=5,40=1/2;
 3/5=1,6=6,7=101,11=9,25=1,30=1,71=1/1,2,3;
 4//1;
 5/5=2,38=5/2;
 8/6=4,10=2/1;
 9/15=2,16=-3/6;
 10/5=1/2;
 6/7=2,8=2,9=2,10=2/1;
 7/12=2/1,2,3,16;
 1/18=20,19=15/3(2);
 2/9=110/2;
 99//99;
 2/9=110/2;
 3/5=1,6=6,7=101,11=9,25=1,30=1,71=1/1,2,3;
 4/5=5,16=3,69=1/1;
 5/5=2,38=5/2;
 8/6=4,10=2/1;
 9/15=2,16=-3/6;
 10/5=1/2;
 7/12=2/1,2,3,16;
 1/18=20,19=15/3(-8);
 2/9=110/2;
 6/7=2,8=2,9=2,10=2/1;
 99//99;
 Leave Link    1 at Fri Sep 17 16:07:41 2021, MaxMem=   524288000 cpu:               0.0 elap:               0.1
 (Enter /opt/gaussian/g16_legacy/l101.exe)
 -------------------------------------------------
 Conformer number 608. Energy MM = 23.242 kcal/mol
 -------------------------------------------------
 Symbolic Z-matrix:
 Charge =  0 Multiplicity = 1
 C                    -0.3173   -0.7495    0.6808 
 H                    -0.213     0.2509    1.1177 
 H                     0.2535   -1.409     1.3484 
 C                    -1.7689   -1.1826    0.6821 
 C                    -1.9911   -2.6711    0.7631 
 H                    -1.5343   -3.1736   -0.0953 
 H                    -1.5457   -3.072     1.6795 
 H                    -3.0547   -2.9319    0.7708 
 C                    -2.8159   -0.3349    0.6399 
 H                    -3.8234   -0.749     0.6683 
 C                    -2.776     1.1569    0.5333 
 H                    -3.1631    1.6056    1.453 
 H                    -1.7752    1.554     0.3495 
 H                    -3.4119    1.4799   -0.2973 
 C                     1.4471    2.0172   -1.5554 
 H                     1.6719    2.2239   -2.6067 
 H                     0.3684    1.8726   -1.4636 
 H                     1.698     2.9072   -0.9681 
 C                     2.2513    0.84     -1.0767 
 C                     3.7368    1.0847   -1.0234 
 H                     3.9614    1.9099   -0.3397 
 H                     4.2912    0.206    -0.6773 
 H                     4.1133    1.3441   -2.0184 
 C                     1.737    -0.3482   -0.7036 
 H                     2.42     -1.1231   -0.355 
 C                     0.2923   -0.7714   -0.7245 
 H                     0.2469   -1.7866   -1.1387 
 H                    -0.2985   -0.1501   -1.4056 
 
 ITRead=  0  0  0  0  0  0  0  0  0  0  0  0  0  0  0  0  0  0  0  0
 ITRead=  0  0  0  0  0  0  0  0
 MicOpt= -1 -1 -1 -1 -1 -1 -1 -1 -1 -1 -1 -1 -1 -1 -1 -1 -1 -1 -1 -1
 MicOpt= -1 -1 -1 -1 -1 -1 -1 -1
 NAtoms=     28 NQM=       28 NQMF=       0 NMMI=      0 NMMIF=      0
                NMic=       0 NMicF=      0.
                    Isotopes and Nuclear Properties:
 (Nuclear quadrupole moments (NQMom) in fm**2, nuclear magnetic moments (NMagM)
  in nuclear magnetons)

  Atom         1           2           3           4           5           6           7           8           9          10
 IAtWgt=          12           1           1          12          12           1           1           1          12           1
 AtmWgt=  12.0000000   1.0078250   1.0078250  12.0000000  12.0000000   1.0078250   1.0078250   1.0078250  12.0000000   1.0078250
 NucSpn=           0           1           1           0           0           1           1           1           0           1
 AtZEff=  -0.0000000  -0.0000000  -0.0000000  -0.0000000  -0.0000000  -0.0000000  -0.0000000  -0.0000000  -0.0000000  -0.0000000
 NQMom=    0.0000000   0.0000000   0.0000000   0.0000000   0.0000000   0.0000000   0.0000000   0.0000000   0.0000000   0.0000000
 NMagM=    0.0000000   2.7928460   2.7928460   0.0000000   0.0000000   2.7928460   2.7928460   2.7928460   0.0000000   2.7928460
 AtZNuc=   6.0000000   1.0000000   1.0000000   6.0000000   6.0000000   1.0000000   1.0000000   1.0000000   6.0000000   1.0000000

  Atom        11          12          13          14          15          16          17          18          19          20
 IAtWgt=          12           1           1           1          12           1           1           1          12          12
 AtmWgt=  12.0000000   1.0078250   1.0078250   1.0078250  12.0000000   1.0078250   1.0078250   1.0078250  12.0000000  12.0000000
 NucSpn=           0           1           1           1           0           1           1           1           0           0
 AtZEff=  -0.0000000  -0.0000000  -0.0000000  -0.0000000  -0.0000000  -0.0000000  -0.0000000  -0.0000000  -0.0000000  -0.0000000
 NQMom=    0.0000000   0.0000000   0.0000000   0.0000000   0.0000000   0.0000000   0.0000000   0.0000000   0.0000000   0.0000000
 NMagM=    0.0000000   2.7928460   2.7928460   2.7928460   0.0000000   2.7928460   2.7928460   2.7928460   0.0000000   0.0000000
 AtZNuc=   6.0000000   1.0000000   1.0000000   1.0000000   6.0000000   1.0000000   1.0000000   1.0000000   6.0000000   6.0000000

  Atom        21          22          23          24          25          26          27          28
 IAtWgt=           1           1           1          12           1          12           1           1
 AtmWgt=   1.0078250   1.0078250   1.0078250  12.0000000   1.0078250  12.0000000   1.0078250   1.0078250
 NucSpn=           1           1           1           0           1           0           1           1
 AtZEff=  -0.0000000  -0.0000000  -0.0000000  -0.0000000  -0.0000000  -0.0000000  -0.0000000  -0.0000000
 NQMom=    0.0000000   0.0000000   0.0000000   0.0000000   0.0000000   0.0000000   0.0000000   0.0000000
 NMagM=    2.7928460   2.7928460   2.7928460   0.0000000   2.7928460   0.0000000   2.7928460   2.7928460
 AtZNuc=   1.0000000   1.0000000   1.0000000   6.0000000   1.0000000   6.0000000   1.0000000   1.0000000
 Leave Link  101 at Fri Sep 17 16:07:41 2021, MaxMem=   524288000 cpu:               0.3 elap:               0.3
 (Enter /opt/gaussian/g16_legacy/l103.exe)

 GradGradGradGradGradGradGradGradGradGradGradGradGradGradGradGradGradGrad
 Berny optimization.
 Initialization pass.
                           ----------------------------
                           !    Initial Parameters    !
                           ! (Angstroms and Degrees)  !
 --------------------------                            --------------------------
 ! Name  Definition              Value          Derivative Info.                !
 --------------------------------------------------------------------------------
 ! R1    R(1,2)                  1.0966         estimate D2E/DX2                !
 ! R2    R(1,3)                  1.0984         estimate D2E/DX2                !
 ! R3    R(1,4)                  1.5148         estimate D2E/DX2                !
 ! R4    R(1,26)                 1.532          estimate D2E/DX2                !
 ! R5    R(4,5)                  1.5072         estimate D2E/DX2                !
 ! R6    R(4,9)                  1.3478         estimate D2E/DX2                !
 ! R7    R(5,6)                  1.0945         estimate D2E/DX2                !
 ! R8    R(5,7)                  1.0949         estimate D2E/DX2                !
 ! R9    R(5,8)                  1.0951         estimate D2E/DX2                !
 ! R10   R(9,10)                 1.0897         estimate D2E/DX2                !
 ! R11   R(9,11)                 1.4961         estimate D2E/DX2                !
 ! R12   R(11,12)                1.0941         estimate D2E/DX2                !
 ! R13   R(11,13)                1.0923         estimate D2E/DX2                !
 ! R14   R(11,14)                1.0948         estimate D2E/DX2                !
 ! R15   R(15,16)                1.0948         estimate D2E/DX2                !
 ! R16   R(15,17)                1.0922         estimate D2E/DX2                !
 ! R17   R(15,18)                1.0954         estimate D2E/DX2                !
 ! R18   R(15,19)                1.5039         estimate D2E/DX2                !
 ! R19   R(19,20)                1.5065         estimate D2E/DX2                !
 ! R20   R(19,24)                1.3474         estimate D2E/DX2                !
 ! R21   R(20,21)                1.0949         estimate D2E/DX2                !
 ! R22   R(20,22)                1.0951         estimate D2E/DX2                !
 ! R23   R(20,23)                1.095          estimate D2E/DX2                !
 ! R24   R(24,25)                1.0902         estimate D2E/DX2                !
 ! R25   R(24,26)                1.5056         estimate D2E/DX2                !
 ! R26   R(26,27)                1.0974         estimate D2E/DX2                !
 ! R27   R(26,28)                1.095          estimate D2E/DX2                !
 ! A1    A(2,1,3)              104.8428         estimate D2E/DX2                !
 ! A2    A(2,1,4)              110.5865         estimate D2E/DX2                !
 ! A3    A(2,1,26)             109.917          estimate D2E/DX2                !
 ! A4    A(3,1,4)              109.0136         estimate D2E/DX2                !
 ! A5    A(3,1,26)             110.0094         estimate D2E/DX2                !
 ! A6    A(4,1,26)             112.2103         estimate D2E/DX2                !
 ! A7    A(1,4,5)              115.0674         estimate D2E/DX2                !
 ! A8    A(1,4,9)              124.3706         estimate D2E/DX2                !
 ! A9    A(5,4,9)              120.5516         estimate D2E/DX2                !
 ! A10   A(4,5,6)              110.4709         estimate D2E/DX2                !
 ! A11   A(4,5,7)              110.2802         estimate D2E/DX2                !
 ! A12   A(4,5,8)              112.2566         estimate D2E/DX2                !
 ! A13   A(6,5,7)              108.5732         estimate D2E/DX2                !
 ! A14   A(6,5,8)              107.5483         estimate D2E/DX2                !
 ! A15   A(7,5,8)              107.5771         estimate D2E/DX2                !
 ! A16   A(4,9,10)             118.582          estimate D2E/DX2                !
 ! A17   A(4,9,11)             127.4911         estimate D2E/DX2                !
 ! A18   A(10,9,11)            113.9189         estimate D2E/DX2                !
 ! A19   A(9,11,12)            109.8523         estimate D2E/DX2                !
 ! A20   A(9,11,13)            113.5109         estimate D2E/DX2                !
 ! A21   A(9,11,14)            109.4352         estimate D2E/DX2                !
 ! A22   A(12,11,13)           108.4534         estimate D2E/DX2                !
 ! A23   A(12,11,14)           108.1345         estimate D2E/DX2                !
 ! A24   A(13,11,14)           107.2935         estimate D2E/DX2                !
 ! A25   A(16,15,17)           107.9696         estimate D2E/DX2                !
 ! A26   A(16,15,18)           108.3258         estimate D2E/DX2                !
 ! A27   A(16,15,19)           110.1            estimate D2E/DX2                !
 ! A28   A(17,15,18)           106.7807         estimate D2E/DX2                !
 ! A29   A(17,15,19)           113.4372         estimate D2E/DX2                !
 ! A30   A(18,15,19)           110.0498         estimate D2E/DX2                !
 ! A31   A(15,19,20)           114.294          estimate D2E/DX2                !
 ! A32   A(15,19,24)           125.051          estimate D2E/DX2                !
 ! A33   A(20,19,24)           120.6522         estimate D2E/DX2                !
 ! A34   A(19,20,21)           110.291          estimate D2E/DX2                !
 ! A35   A(19,20,22)           112.3371         estimate D2E/DX2                !
 ! A36   A(19,20,23)           110.2047         estimate D2E/DX2                !
 ! A37   A(21,20,22)           107.6702         estimate D2E/DX2                !
 ! A38   A(21,20,23)           108.5619         estimate D2E/DX2                !
 ! A39   A(22,20,23)           107.6492         estimate D2E/DX2                !
 ! A40   A(19,24,25)           118.439          estimate D2E/DX2                !
 ! A41   A(19,24,26)           127.6112         estimate D2E/DX2                !
 ! A42   A(25,24,26)           113.9425         estimate D2E/DX2                !
 ! A43   A(1,26,24)            111.4125         estimate D2E/DX2                !
 ! A44   A(1,26,27)            110.0594         estimate D2E/DX2                !
 ! A45   A(1,26,28)            110.3517         estimate D2E/DX2                !
 ! A46   A(24,26,27)           107.7569         estimate D2E/DX2                !
 ! A47   A(24,26,28)           111.5239         estimate D2E/DX2                !
 ! A48   A(27,26,28)           105.5344         estimate D2E/DX2                !
 ! D1    D(2,1,4,5)           -151.4135         estimate D2E/DX2                !
 ! D2    D(2,1,4,9)             27.4157         estimate D2E/DX2                !
 ! D3    D(3,1,4,5)            -36.6505         estimate D2E/DX2                !
 ! D4    D(3,1,4,9)            142.1787         estimate D2E/DX2                !
 ! D5    D(26,1,4,5)            85.4647         estimate D2E/DX2                !
 ! D6    D(26,1,4,9)           -95.7061         estimate D2E/DX2                !
 ! D7    D(2,1,26,24)           56.9315         estimate D2E/DX2                !
 ! D8    D(2,1,26,27)          176.3995         estimate D2E/DX2                !
 ! D9    D(2,1,26,28)          -67.5259         estimate D2E/DX2                !
 ! D10   D(3,1,26,24)          -58.024          estimate D2E/DX2                !
 ! D11   D(3,1,26,27)           61.444          estimate D2E/DX2                !
 ! D12   D(3,1,26,28)          177.5187         estimate D2E/DX2                !
 ! D13   D(4,1,26,24)         -179.5709         estimate D2E/DX2                !
 ! D14   D(4,1,26,27)          -60.1028         estimate D2E/DX2                !
 ! D15   D(4,1,26,28)           55.9718         estimate D2E/DX2                !
 ! D16   D(1,4,5,6)            -60.528          estimate D2E/DX2                !
 ! D17   D(1,4,5,7)             59.4983         estimate D2E/DX2                !
 ! D18   D(1,4,5,8)            179.438          estimate D2E/DX2                !
 ! D19   D(9,4,5,6)            120.5942         estimate D2E/DX2                !
 ! D20   D(9,4,5,7)           -119.3795         estimate D2E/DX2                !
 ! D21   D(9,4,5,8)              0.5601         estimate D2E/DX2                !
 ! D22   D(1,4,9,10)          -178.6071         estimate D2E/DX2                !
 ! D23   D(1,4,9,11)             2.4862         estimate D2E/DX2                !
 ! D24   D(5,4,9,10)             0.1614         estimate D2E/DX2                !
 ! D25   D(5,4,9,11)          -178.7453         estimate D2E/DX2                !
 ! D26   D(4,9,11,12)         -113.6836         estimate D2E/DX2                !
 ! D27   D(4,9,11,13)            7.9221         estimate D2E/DX2                !
 ! D28   D(4,9,11,14)          127.7416         estimate D2E/DX2                !
 ! D29   D(10,9,11,12)          67.3667         estimate D2E/DX2                !
 ! D30   D(10,9,11,13)        -171.0276         estimate D2E/DX2                !
 ! D31   D(10,9,11,14)         -51.2081         estimate D2E/DX2                !
 ! D32   D(16,15,19,20)         66.5538         estimate D2E/DX2                !
 ! D33   D(16,15,19,24)       -114.0594         estimate D2E/DX2                !
 ! D34   D(17,15,19,20)       -172.3348         estimate D2E/DX2                !
 ! D35   D(17,15,19,24)          7.052          estimate D2E/DX2                !
 ! D36   D(18,15,19,20)        -52.7847         estimate D2E/DX2                !
 ! D37   D(18,15,19,24)        126.6021         estimate D2E/DX2                !
 ! D38   D(15,19,20,21)         60.2532         estimate D2E/DX2                !
 ! D39   D(15,19,20,22)       -179.6283         estimate D2E/DX2                !
 ! D40   D(15,19,20,23)        -59.5957         estimate D2E/DX2                !
 ! D41   D(24,19,20,21)       -119.1633         estimate D2E/DX2                !
 ! D42   D(24,19,20,22)          0.9553         estimate D2E/DX2                !
 ! D43   D(24,19,20,23)        120.9879         estimate D2E/DX2                !
 ! D44   D(15,19,24,25)       -178.8335         estimate D2E/DX2                !
 ! D45   D(15,19,24,26)          2.2187         estimate D2E/DX2                !
 ! D46   D(20,19,24,25)          0.5168         estimate D2E/DX2                !
 ! D47   D(20,19,24,26)       -178.431          estimate D2E/DX2                !
 ! D48   D(19,24,26,1)        -103.3648         estimate D2E/DX2                !
 ! D49   D(19,24,26,27)        135.8091         estimate D2E/DX2                !
 ! D50   D(19,24,26,28)         20.4307         estimate D2E/DX2                !
 ! D51   D(25,24,26,1)          77.6475         estimate D2E/DX2                !
 ! D52   D(25,24,26,27)        -43.1787         estimate D2E/DX2                !
 ! D53   D(25,24,26,28)       -158.557          estimate D2E/DX2                !
 --------------------------------------------------------------------------------
 Trust Radius=3.00D-01 FncErr=1.00D-07 GrdErr=1.00D-07 EigMax=2.50D+02 EigMin=1.00D-04
 Number of steps in this run=    138 maximum allowed number of steps=    168.
 GradGradGradGradGradGradGradGradGradGradGradGradGradGradGradGradGradGrad

 Leave Link  103 at Fri Sep 17 16:07:41 2021, MaxMem=   524288000 cpu:               0.1 elap:               0.1
 (Enter /opt/gaussian/g16_legacy/l202.exe)
                          Input orientation:                          
 ---------------------------------------------------------------------
 Center     Atomic      Atomic             Coordinates (Angstroms)
 Number     Number       Type             X           Y           Z
 ---------------------------------------------------------------------
      1          6           0       -0.317300   -0.749500    0.680800
      2          1           0       -0.213000    0.250900    1.117700
      3          1           0        0.253500   -1.409000    1.348400
      4          6           0       -1.768900   -1.182600    0.682100
      5          6           0       -1.991100   -2.671100    0.763100
      6          1           0       -1.534300   -3.173600   -0.095300
      7          1           0       -1.545700   -3.072000    1.679500
      8          1           0       -3.054700   -2.931900    0.770800
      9          6           0       -2.815900   -0.334900    0.639900
     10          1           0       -3.823400   -0.749000    0.668300
     11          6           0       -2.776000    1.156900    0.533300
     12          1           0       -3.163100    1.605600    1.453000
     13          1           0       -1.775200    1.554000    0.349500
     14          1           0       -3.411900    1.479900   -0.297300
     15          6           0        1.447100    2.017200   -1.555400
     16          1           0        1.671900    2.223900   -2.606700
     17          1           0        0.368400    1.872600   -1.463600
     18          1           0        1.698000    2.907200   -0.968100
     19          6           0        2.251300    0.840000   -1.076700
     20          6           0        3.736800    1.084700   -1.023400
     21          1           0        3.961400    1.909900   -0.339700
     22          1           0        4.291200    0.206000   -0.677300
     23          1           0        4.113300    1.344100   -2.018400
     24          6           0        1.737000   -0.348200   -0.703600
     25          1           0        2.420000   -1.123100   -0.355000
     26          6           0        0.292300   -0.771400   -0.724500
     27          1           0        0.246900   -1.786600   -1.138700
     28          1           0       -0.298500   -0.150100   -1.405600
 ---------------------------------------------------------------------
                    Distance matrix (angstroms):
                    1          2          3          4          5
     1  C    0.000000
     2  H    1.096613   0.000000
     3  H    1.098382   1.739573   0.000000
     4  C    1.514833   2.159976   2.141335   0.000000
     5  C    2.549691   3.438817   2.640777   1.507172   0.000000
     6  H    2.821291   3.865799   2.897294   2.150225   1.094542
     7  H    2.810760   3.624000   2.472310   2.148129   1.094939
     8  H    3.502046   4.280866   3.687416   2.172832   1.095135
     9  C    2.533095   2.710451   3.328195   1.347808   2.480585
    10  H    3.506122   3.773162   4.185600   2.099802   2.657213
    11  C    3.114695   2.780527   4.052913   2.551402   3.914391
    12  H    3.773774   3.263545   4.557621   3.211252   4.487729
    13  H    2.746151   2.174550   3.727304   2.756745   4.250782
    14  H    3.937442   3.707510   4.948659   3.278350   4.513748
    15  C    3.970935   3.608492   4.647105   5.058437   6.259139
    16  H    4.858568   4.617005   5.554515   5.853166   6.980985
    17  H    3.456016   3.103393   4.323129   4.301898   5.583068
    18  H    4.489071   3.880517   5.107087   5.609725   6.908252
    19  C    3.494714   3.351896   3.863977   4.831801   5.806087
    20  C    4.764904   4.569513   4.896668   6.193716   7.078591
    21  H    5.140146   4.722490   5.254836   6.591204   7.591705
    22  H    4.898539   4.848903   4.797365   6.364039   7.058311
    23  H    5.594556   5.454088   5.814891   6.948179   7.818073
    24  C    2.509533   2.734695   2.745318   3.861052   4.630961
    25  H    2.950469   3.315028   2.770746   4.315785   4.806689
    26  C    1.531979   2.166593   2.169091   2.529062   3.322007
    27  H    2.168981   3.074777   2.515610   2.782729   3.067218
    28  H    2.170875   2.556395   3.077994   2.754383   3.731433
                    6          7          8          9         10
     6  H    0.000000
     7  H    1.777742   0.000000
     8  H    1.766399   1.767044   0.000000
     9  C    3.200193   3.191535   2.611239   0.000000
    10  H    3.420782   3.406871   2.316562   1.089652   0.000000
    11  C    4.548647   4.550935   4.105163   1.496136   2.178928
    12  H    5.281191   4.954516   4.589777   2.132421   2.568247
    13  H    4.754585   4.818864   4.683793   2.176082   3.098478
    14  H    5.022076   5.301909   4.553285   2.127689   2.463678
    15  C    6.161578   6.732116   7.083149   5.340869   6.354123
    16  H    6.761646   7.534654   7.767273   6.101493   7.054224
    17  H    5.563870   6.163759   6.308199   4.408802   5.384141
    18  H    6.941590   7.299466   7.727032   5.785514   6.821397
    19  C    5.603829   6.108813   6.767135   5.477556   6.517049
    20  C    6.839516   7.244904   8.091768   6.907945   7.961214
    21  H    7.490289   7.695755   8.596621   7.206285   8.287878
    22  H    6.759946   7.097126   8.118230   7.248342   8.280664
    23  H    7.483536   8.074694   8.800229   7.609166   8.636587
    24  C    4.365125   4.886141   5.640013   4.747006   5.741150
    25  H    4.461892   4.864584   5.874651   5.387554   6.337755
    26  C    3.082681   3.801345   4.255125   3.422430   4.345041
    27  H    2.486991   3.578815   3.982269   3.827740   4.572658
    28  H    3.519324   4.428414   4.480153   3.248927   4.133360
                   11         12         13         14         15
    11  C    0.000000
    12  H    1.094087   0.000000
    13  H    1.092278   1.773877   0.000000
    14  H    1.094803   1.772358   1.761428   0.000000
    15  C    4.789296   5.520311   3.771792   5.047909   0.000000
    16  H    5.548144   6.343555   4.590249   5.633106   1.094756
    17  H    3.793031   4.587956   2.825572   3.975568   1.092213
    18  H    5.033332   5.584459   3.953522   5.347732   1.095432
    19  C    5.288315   6.025052   4.330883   5.752284   1.503892
    20  C    6.696648   7.349321   5.699758   7.196340   2.528894
    21  H    6.835327   7.352882   5.788803   7.385950   2.794842
    22  H    7.232916   7.878048   6.298621   7.816967   3.484309
    23  H    7.349059   8.066288   6.350232   7.720703   2.788558
    24  C    4.915528   5.699056   4.130730   5.478887   2.530755
    25  H    5.743335   6.471914   5.026220   6.386705   3.499854
    26  C    3.835996   4.725614   3.291735   4.355680   3.130535
    27  H    4.538469   5.463701   4.178904   4.976424   4.010363
    28  H    3.406698   4.411350   2.857442   3.684900   2.786889
                   16         17         18         19         20
    16  H    0.000000
    17  H    1.768955   0.000000
    18  H    1.775553   1.756062   0.000000
    19  C    2.142845   2.182033   2.142720   0.000000
    20  C    2.840498   3.487217   2.735191   1.506462   0.000000
    21  H    3.237236   3.764863   2.551955   2.147626   1.094918
    22  H    3.828216   4.334072   3.755760   2.173170   1.095107
    23  H    2.660936   3.822485   3.062693   2.146616   1.095019
    24  C    3.200270   2.717097   3.266360   1.347415   2.480862
    25  H    4.102708   3.796350   4.140108   2.098350   2.656144
    26  C    3.797077   2.746415   3.945558   2.560925   3.924160
    27  H    4.502195   3.675604   4.915949   3.304617   4.520737
    28  H    3.310739   2.130595   3.677567   2.754987   4.237270
                   21         22         23         24         25
    21  H    0.000000
    22  H    1.768055   0.000000
    23  H    1.777987   1.767900   0.000000
    24  C    3.190516   2.613765   3.199903   0.000000
    25  H    3.402240   2.317709   3.423630   1.090175   0.000000
    26  C    4.560673   4.116885   4.555168   1.505554   2.187997
    27  H    5.300946   4.532075   5.052148   2.116295   2.403494
    28  H    4.850411   4.660748   4.698099   2.162246   3.072577
                   26         27         28
    26  C    0.000000
    27  H    1.097385   0.000000
    28  H    1.094968   1.745517   0.000000
 Stoichiometry    C10H18
 Framework group  C1[X(C10H18)]
 Deg. of freedom    78
 Full point group                 C1      NOp   1
 Largest Abelian subgroup         C1      NOp   1
 Largest concise Abelian subgroup C1      NOp   1
                         Standard orientation:                         
 ---------------------------------------------------------------------
 Center     Atomic      Atomic             Coordinates (Angstroms)
 Number     Number       Type             X           Y           Z
 ---------------------------------------------------------------------
      1          6           0       -0.793799   -0.586496    0.589149
      2          1           0       -0.484650    0.235315    1.246122
      3          1           0       -0.745980   -1.484319    1.220076
      4          6           0       -2.220942   -0.386982    0.122053
      5          6           0       -2.975647   -1.655029   -0.184612
      6          1           0       -2.478678   -2.212236   -0.984965
      7          1           0       -3.025221   -2.291710    0.704810
      8          1           0       -4.003225   -1.458211   -0.508134
      9          6           0       -2.820239    0.813909   -0.001594
     10          1           0       -3.860357    0.846656   -0.324743
     11          6           0       -2.215751    2.161923    0.234786
     12          1           0       -2.690763    2.635762    1.099000
     13          1           0       -1.137428    2.131923    0.406225
     14          1           0       -2.388668    2.797166   -0.639948
     15          6           0        2.465944    1.425910   -0.456139
     16          1           0        3.076395    1.626142   -1.342563
     17          1           0        1.439670    1.725982   -0.678963
     18          1           0        2.815332    2.072744    0.355960
     19          6           0        2.593466   -0.018218   -0.056234
     20          6           0        3.965090   -0.407957    0.429749
     21          1           0        4.237076    0.181235    1.311634
     22          1           0        4.023714   -1.466054    0.705887
     23          1           0        4.709134   -0.227432   -0.353115
     24          6           0        1.596344   -0.923524   -0.097421
     25          1           0        1.804028   -1.940182    0.236877
     26          6           0        0.185963   -0.715639   -0.581470
     27          1           0       -0.084237   -1.577182   -1.205159
     28          1           0        0.111283    0.157027   -1.238609
 ---------------------------------------------------------------------
 Rotational constants (GHZ):           2.2180763           0.5802278           0.4854205
 Leave Link  202 at Fri Sep 17 16:07:42 2021, MaxMem=   524288000 cpu:               0.1 elap:               1.1
 (Enter /opt/gaussian/g16_legacy/l301.exe)
 Standard basis: 6-31G(d,p) (6D, 7F)
 Ernie: Thresh=  0.10000D-02 Tol=  0.10000D-05 Strict=F.
 There are   240 symmetry adapted cartesian basis functions of A   symmetry.
 There are   240 symmetry adapted basis functions of A   symmetry.
   240 basis functions,   406 primitive gaussians,   240 cartesian basis functions
    39 alpha electrons       39 beta electrons
       nuclear repulsion energy       516.4340637260 Hartrees.
 IExCor=    0 DFT=F Ex=HF Corr=None ExCW=0 ScaHFX=  1.000000
 ScaDFX=  1.000000  1.000000  1.000000  1.000000 ScalE2=  1.000000  1.000000
 IRadAn=      5 IRanWt=     -1 IRanGd=            0 ICorTp=0 IEmpDi=  4
 NAtoms=   28 NActive=   28 NUniq=   28 SFac= 1.00D+00 NAtFMM=   60 NAOKFM=F Big=F
 Integral buffers will be    131072 words long.
 Raffenetti 1 integral format.
 Two-electron integral symmetry is turned on.
 Leave Link  301 at Fri Sep 17 16:07:43 2021, MaxMem=   524288000 cpu:               0.1 elap:               0.3
 (Enter /opt/gaussian/g16_legacy/l302.exe)
 NPDir=0 NMtPBC=     1 NCelOv=     1 NCel=       1 NClECP=     1 NCelD=      1
         NCelK=      1 NCelE2=     1 NClLst=     1 CellRange=     0.0.
 One-electron integrals computed using PRISM.
 One-electron integral symmetry used in STVInt
 NBasis=   240 RedAO= T EigKep=  2.10D-03  NBF=   240
 NBsUse=   240 1.00D-06 EigRej= -1.00D+00 NBFU=   240
 Leave Link  302 at Fri Sep 17 16:07:44 2021, MaxMem=   524288000 cpu:               0.3 elap:               0.7
 (Enter /opt/gaussian/g16_legacy/l303.exe)
 DipDrv:  MaxL=1.
 Leave Link  303 at Fri Sep 17 16:07:44 2021, MaxMem=   524288000 cpu:               0.1 elap:               0.1
 (Enter /opt/gaussian/g16_legacy/l401.exe)
 ExpMin= 1.61D-01 ExpMax= 3.05D+03 ExpMxC= 4.57D+02 IAcc=3 IRadAn=         5 AccDes= 0.00D+00
 Harris functional with IExCor=  205 and IRadAn=       5 diagonalized for initial guess.
 HarFok:  IExCor=  205 AccDes= 0.00D+00 IRadAn=         5 IDoV= 1 UseB2=F ITyADJ=14
 ICtDFT=  3500011 ScaDFX=  1.000000  1.000000  1.000000  1.000000
 FoFCou: FMM=F IPFlag=           0 FMFlag=      100000 FMFlg1=           0
         NFxFlg=           0 DoJE=T BraDBF=F KetDBF=T FulRan=T
         wScrn=  0.000000 ICntrl=       500 IOpCl=  0 I1Cent=   200000004 NGrid=           0
         NMat0=    1 NMatS0=      1 NMatT0=    0 NMatD0=    1 NMtDS0=    0 NMtDT0=    0
 Petite list used in FoFCou.
 Harris En= -390.109896054394    
 JPrj=0 DoOrth=F DoCkMO=F.
 Leave Link  401 at Fri Sep 17 16:07:56 2021, MaxMem=   524288000 cpu:              11.8 elap:              11.9
 (Enter /opt/gaussian/g16_legacy/l502.exe)
 Keep R1 ints in memory in canonical form, NReq=425198025.
 FoFCou: FMM=F IPFlag=           0 FMFlag=           0 FMFlg1=           0
         NFxFlg=           0 DoJE=F BraDBF=F KetDBF=F FulRan=T
         wScrn=  0.000000 ICntrl=       600 IOpCl=  0 I1Cent=           0 NGrid=           0
         NMat0=    1 NMatS0=  28920 NMatT0=    0 NMatD0=    1 NMtDS0=    0 NMtDT0=    0
 Symmetry not used in FoFCou.
 Two-electron integral symmetry not used.
 Closed shell SCF:
 Using DIIS extrapolation, IDIIS=  1040.
 NGot=   524288000 LenX=   105970886 LenY=   105912845
 Requested convergence on RMS density matrix=1.00D-08 within 128 cycles.
 Requested convergence on MAX density matrix=1.00D-06.
 Requested convergence on             energy=1.00D-06.
 No special actions if energy rises.

 Cycle   1  Pass 1  IDiag  1:
 E= -388.533180419833    
 DIIS: error= 5.21D-02 at cycle   1 NSaved=   1.
 NSaved= 1 IEnMin= 1 EnMin= -388.533180419833     IErMin= 1 ErrMin= 5.21D-02
 ErrMax= 5.21D-02  0.00D+00 EMaxC= 1.00D-01 BMatC= 8.07D-01 BMatP= 8.07D-01
 IDIUse=3 WtCom= 4.79D-01 WtEn= 5.21D-01
 Coeff-Com:  0.100D+01
 Coeff-En:   0.100D+01
 Coeff:      0.100D+01
 Gap=     0.508 Goal=   None    Shift=    0.000
 GapD=    0.508 DampG=2.000 DampE=0.500 DampFc=1.0000 IDamp=-1.
 RMSDP=4.00D-03 MaxDP=1.14D-01              OVMax= 1.33D-01

 Cycle   2  Pass 1  IDiag  1:
 E= -389.073874317206     Delta-E=       -0.540693897372 Rises=F Damp=F
 DIIS: error= 1.59D-02 at cycle   2 NSaved=   2.
 NSaved= 2 IEnMin= 2 EnMin= -389.073874317206     IErMin= 2 ErrMin= 1.59D-02
 ErrMax= 1.59D-02  0.00D+00 EMaxC= 1.00D-01 BMatC= 8.66D-02 BMatP= 8.07D-01
 IDIUse=3 WtCom= 8.41D-01 WtEn= 1.59D-01
 Coeff-Com:  0.183D+00 0.817D+00
 Coeff-En:   0.000D+00 0.100D+01
 Coeff:      0.154D+00 0.846D+00
 Gap=     0.549 Goal=   None    Shift=    0.000
 RMSDP=1.63D-03 MaxDP=3.04D-02 DE=-5.41D-01 OVMax= 4.61D-02

 Cycle   3  Pass 1  IDiag  1:
 E= -389.151434439390     Delta-E=       -0.077560122185 Rises=F Damp=F
 DIIS: error= 3.43D-03 at cycle   3 NSaved=   3.
 NSaved= 3 IEnMin= 3 EnMin= -389.151434439390     IErMin= 3 ErrMin= 3.43D-03
 ErrMax= 3.43D-03  0.00D+00 EMaxC= 1.00D-01 BMatC= 3.14D-03 BMatP= 8.66D-02
 IDIUse=3 WtCom= 9.66D-01 WtEn= 3.43D-02
 Coeff-Com: -0.245D-01 0.106D+00 0.919D+00
 Coeff-En:   0.000D+00 0.000D+00 0.100D+01
 Coeff:     -0.236D-01 0.102D+00 0.921D+00
 Gap=     0.499 Goal=   None    Shift=    0.000
 RMSDP=2.59D-04 MaxDP=7.14D-03 DE=-7.76D-02 OVMax= 1.01D-02

 Cycle   4  Pass 1  IDiag  1:
 E= -389.155060155438     Delta-E=       -0.003625716048 Rises=F Damp=F
 DIIS: error= 5.31D-04 at cycle   4 NSaved=   4.
 NSaved= 4 IEnMin= 4 EnMin= -389.155060155438     IErMin= 4 ErrMin= 5.31D-04
 ErrMax= 5.31D-04  0.00D+00 EMaxC= 1.00D-01 BMatC= 9.29D-05 BMatP= 3.14D-03
 IDIUse=3 WtCom= 9.95D-01 WtEn= 5.31D-03
 Coeff-Com: -0.424D-02-0.189D-02 0.950D-01 0.911D+00
 Coeff-En:   0.000D+00 0.000D+00 0.000D+00 0.100D+01
 Coeff:     -0.422D-02-0.188D-02 0.945D-01 0.912D+00
 Gap=     0.499 Goal=   None    Shift=    0.000
 RMSDP=7.39D-05 MaxDP=1.49D-03 DE=-3.63D-03 OVMax= 3.14D-03

 Cycle   5  Pass 1  IDiag  1:
 E= -389.155184490525     Delta-E=       -0.000124335087 Rises=F Damp=F
 DIIS: error= 1.63D-04 at cycle   5 NSaved=   5.
 NSaved= 5 IEnMin= 5 EnMin= -389.155184490525     IErMin= 5 ErrMin= 1.63D-04
 ErrMax= 1.63D-04  0.00D+00 EMaxC= 1.00D-01 BMatC= 1.60D-05 BMatP= 9.29D-05
 IDIUse=3 WtCom= 9.98D-01 WtEn= 1.63D-03
 Coeff-Com:  0.241D-02-0.152D-01-0.102D+00 0.176D+00 0.939D+00
 Coeff-En:   0.000D+00 0.000D+00 0.000D+00 0.000D+00 0.100D+01
 Coeff:      0.241D-02-0.152D-01-0.102D+00 0.175D+00 0.939D+00
 Gap=     0.500 Goal=   None    Shift=    0.000
 RMSDP=3.00D-05 MaxDP=6.56D-04 DE=-1.24D-04 OVMax= 9.23D-04

 Cycle   6  Pass 1  IDiag  1:
 E= -389.155205973787     Delta-E=       -0.000021483262 Rises=F Damp=F
 DIIS: error= 3.58D-05 at cycle   6 NSaved=   6.
 NSaved= 6 IEnMin= 6 EnMin= -389.155205973787     IErMin= 6 ErrMin= 3.58D-05
 ErrMax= 3.58D-05  0.00D+00 EMaxC= 1.00D-01 BMatC= 5.50D-07 BMatP= 1.60D-05
 IDIUse=1 WtCom= 1.00D+00 WtEn= 0.00D+00
 Coeff-Com:  0.720D-03-0.335D-02-0.261D-01-0.433D-02 0.177D+00 0.856D+00
 Coeff:      0.720D-03-0.335D-02-0.261D-01-0.433D-02 0.177D+00 0.856D+00
 Gap=     0.500 Goal=   None    Shift=    0.000
 RMSDP=5.30D-06 MaxDP=1.61D-04 DE=-2.15D-05 OVMax= 3.23D-04

 Cycle   7  Pass 1  IDiag  1:
 E= -389.155206814874     Delta-E=       -0.000000841087 Rises=F Damp=F
 DIIS: error= 1.03D-05 at cycle   7 NSaved=   7.
 NSaved= 7 IEnMin= 7 EnMin= -389.155206814874     IErMin= 7 ErrMin= 1.03D-05
 ErrMax= 1.03D-05  0.00D+00 EMaxC= 1.00D-01 BMatC= 5.44D-08 BMatP= 5.50D-07
 IDIUse=1 WtCom= 1.00D+00 WtEn= 0.00D+00
 Coeff-Com: -0.494D-04 0.463D-03 0.301D-02-0.105D-01-0.468D-01 0.145D+00
 Coeff-Com:  0.909D+00
 Coeff:     -0.494D-04 0.463D-03 0.301D-02-0.105D-01-0.468D-01 0.145D+00
 Coeff:      0.909D+00
 Gap=     0.500 Goal=   None    Shift=    0.000
 RMSDP=1.71D-06 MaxDP=4.10D-05 DE=-8.41D-07 OVMax= 8.41D-05

 Cycle   8  Pass 1  IDiag  1:
 E= -389.155206903792     Delta-E=       -0.000000088919 Rises=F Damp=F
 DIIS: error= 3.51D-06 at cycle   8 NSaved=   8.
 NSaved= 8 IEnMin= 8 EnMin= -389.155206903792     IErMin= 8 ErrMin= 3.51D-06
 ErrMax= 3.51D-06  0.00D+00 EMaxC= 1.00D-01 BMatC= 5.09D-09 BMatP= 5.44D-08
 IDIUse=1 WtCom= 1.00D+00 WtEn= 0.00D+00
 Coeff-Com: -0.581D-04 0.249D-03 0.208D-02 0.315D-02-0.171D-01-0.803D-01
 Coeff-Com: -0.123D+00 0.121D+01
 Coeff:     -0.581D-04 0.249D-03 0.208D-02 0.315D-02-0.171D-01-0.803D-01
 Coeff:     -0.123D+00 0.121D+01
 Gap=     0.500 Goal=   None    Shift=    0.000
 RMSDP=7.85D-07 MaxDP=2.40D-05 DE=-8.89D-08 OVMax= 5.81D-05

 Cycle   9  Pass 1  IDiag  1:
 E= -389.155206919650     Delta-E=       -0.000000015858 Rises=F Damp=F
 DIIS: error= 1.46D-06 at cycle   9 NSaved=   9.
 NSaved= 9 IEnMin= 9 EnMin= -389.155206919650     IErMin= 9 ErrMin= 1.46D-06
 ErrMax= 1.46D-06  0.00D+00 EMaxC= 1.00D-01 BMatC= 7.38D-10 BMatP= 5.09D-09
 IDIUse=1 WtCom= 1.00D+00 WtEn= 0.00D+00
 Coeff-Com:  0.928D-05-0.690D-04-0.480D-03 0.144D-02 0.385D-02 0.817D-04
 Coeff-Com: -0.865D-01-0.120D+00 0.120D+01
 Coeff:      0.928D-05-0.690D-04-0.480D-03 0.144D-02 0.385D-02 0.817D-04
 Coeff:     -0.865D-01-0.120D+00 0.120D+01
 Gap=     0.500 Goal=   None    Shift=    0.000
 RMSDP=2.99D-07 MaxDP=1.24D-05 DE=-1.59D-08 OVMax= 2.71D-05

 Cycle  10  Pass 1  IDiag  1:
 E= -389.155206922070     Delta-E=       -0.000000002419 Rises=F Damp=F
 DIIS: error= 3.97D-07 at cycle  10 NSaved=  10.
 NSaved=10 IEnMin=10 EnMin= -389.155206922070     IErMin=10 ErrMin= 3.97D-07
 ErrMax= 3.97D-07  0.00D+00 EMaxC= 1.00D-01 BMatC= 1.21D-10 BMatP= 7.38D-10
 IDIUse=1 WtCom= 1.00D+00 WtEn= 0.00D+00
 Coeff-Com:  0.952D-05-0.464D-04-0.369D-03-0.135D-03 0.233D-02 0.142D-01
 Coeff-Com:  0.594D-02-0.211D+00 0.144D+00 0.105D+01
 Coeff:      0.952D-05-0.464D-04-0.369D-03-0.135D-03 0.233D-02 0.142D-01
 Coeff:      0.594D-02-0.211D+00 0.144D+00 0.105D+01
 Gap=     0.500 Goal=   None    Shift=    0.000
 RMSDP=1.24D-07 MaxDP=3.06D-06 DE=-2.42D-09 OVMax= 9.88D-06

 Cycle  11  Pass 1  IDiag  1:
 E= -389.155206922390     Delta-E=       -0.000000000320 Rises=F Damp=F
 DIIS: error= 1.55D-07 at cycle  11 NSaved=  11.
 NSaved=11 IEnMin=11 EnMin= -389.155206922390     IErMin=11 ErrMin= 1.55D-07
 ErrMax= 1.55D-07  0.00D+00 EMaxC= 1.00D-01 BMatC= 9.54D-12 BMatP= 1.21D-10
 IDIUse=1 WtCom= 1.00D+00 WtEn= 0.00D+00
 Coeff-Com:  0.395D-06 0.834D-06 0.973D-06-0.149D-03-0.305D-03 0.278D-02
 Coeff-Com:  0.110D-01-0.153D-01-0.107D+00 0.164D+00 0.945D+00
 Coeff:      0.395D-06 0.834D-06 0.973D-06-0.149D-03-0.305D-03 0.278D-02
 Coeff:      0.110D-01-0.153D-01-0.107D+00 0.164D+00 0.945D+00
 Gap=     0.500 Goal=   None    Shift=    0.000
 RMSDP=2.77D-08 MaxDP=1.16D-06 DE=-3.20D-10 OVMax= 2.51D-06

 Cycle  12  Pass 1  IDiag  1:
 E= -389.155206922397     Delta-E=       -0.000000000008 Rises=F Damp=F
 DIIS: error= 3.64D-08 at cycle  12 NSaved=  12.
 NSaved=12 IEnMin=12 EnMin= -389.155206922397     IErMin=12 ErrMin= 3.64D-08
 ErrMax= 3.64D-08  0.00D+00 EMaxC= 1.00D-01 BMatC= 1.17D-12 BMatP= 9.54D-12
 IDIUse=1 WtCom= 1.00D+00 WtEn= 0.00D+00
 Coeff-Com: -0.102D-05 0.547D-05 0.429D-04 0.322D-05-0.343D-03-0.126D-02
 Coeff-Com:  0.367D-03 0.217D-01-0.321D-01-0.113D+00 0.982D-01 0.103D+01
 Coeff:     -0.102D-05 0.547D-05 0.429D-04 0.322D-05-0.343D-03-0.126D-02
 Coeff:      0.367D-03 0.217D-01-0.321D-01-0.113D+00 0.982D-01 0.103D+01
 Gap=     0.500 Goal=   None    Shift=    0.000
 RMSDP=1.18D-08 MaxDP=3.33D-07 DE=-7.73D-12 OVMax= 8.46D-07

 Cycle  13  Pass 1  IDiag  1:
 E= -389.155206922417     Delta-E=       -0.000000000020 Rises=F Damp=F
 DIIS: error= 1.06D-08 at cycle  13 NSaved=  13.
 NSaved=13 IEnMin=13 EnMin= -389.155206922417     IErMin=13 ErrMin= 1.06D-08
 ErrMax= 1.06D-08  0.00D+00 EMaxC= 1.00D-01 BMatC= 5.47D-14 BMatP= 1.17D-12
 IDIUse=1 WtCom= 1.00D+00 WtEn= 0.00D+00
 Coeff-Com: -0.122D-06 0.462D-06 0.389D-05 0.136D-04-0.170D-04-0.298D-03
 Coeff-Com: -0.849D-03 0.352D-02 0.516D-02-0.212D-01-0.612D-01 0.111D+00
 Coeff-Com:  0.964D+00
 Coeff:     -0.122D-06 0.462D-06 0.389D-05 0.136D-04-0.170D-04-0.298D-03
 Coeff:     -0.849D-03 0.352D-02 0.516D-02-0.212D-01-0.612D-01 0.111D+00
 Coeff:      0.964D+00
 Gap=     0.500 Goal=   None    Shift=    0.000
 RMSDP=2.13D-09 MaxDP=7.03D-08 DE=-1.96D-11 OVMax= 1.05D-07

 SCF Done:  E(RHF) =  -389.155206922     A.U. after   13 cycles
            NFock= 13  Conv=0.21D-08     -V/T= 2.0014
 KE= 3.886258637278D+02 PE=-1.937501830594D+03 EE= 6.432866962178D+02
 Leave Link  502 at Fri Sep 17 16:08:27 2021, MaxMem=   524288000 cpu:              30.9 elap:              30.9
 (Enter /opt/gaussian/g16_legacy/l801.exe)
 ExpMin= 1.61D-01 ExpMax= 3.05D+03 ExpMxC= 4.57D+02 IAcc=3 IRadAn=         5 AccDes= 0.00D+00
 HarFok:  IExCor=  205 AccDes= 0.00D+00 IRadAn=         5 IDoV=-2 UseB2=F ITyADJ=14
 ICtDFT= 12500011 ScaDFX=  1.000000  1.000000  1.000000  1.000000
 Largest valence mixing into a core orbital is  1.98D-04
 Largest core mixing into a valence orbital is  3.52D-05
 Range of M.O.s used for correlation:    11   240
 NBasis=   240 NAE=    39 NBE=    39 NFC=    10 NFV=     0
 NROrb=    230 NOA=    29 NOB=    29 NVA=   201 NVB=   201
 Leave Link  801 at Fri Sep 17 16:08:29 2021, MaxMem=   524288000 cpu:               1.6 elap:               1.6
 (Enter /opt/gaussian/g16_legacy/l906.exe)
 Frozen-core derivative calculation, NFC=  10 NFV=   0.
 FulOut=F Deriv=T AODrv=T NAtomX=    28
   MMem=          88  MDisk=          29 MDiskD=          29
  W3Min=     2246400 MinDsk=     2795480 NBas6D=         240
 NBas2D=       29244    NTT=       28920    LW2=     2040000
    MDV=   523626386 MDiskM=       30186 NBas2p=       24383
 Fully direct method using O(ONN) memory.
 IMap=   1   2   3   4   5   6   7   8   9  10  11  12  13  14  15  16  17  18  19  20
 IMap=  21  22  23  24  25  26  27  28  29  30  31  32  33  34  35  36  37  38  39
 JobTyp=1 Pass  1:  I=  11 to  39 NPSUse=  1 ParTrn=F ParDer=F DoDerP=T.
 Spin components of T(2) and E(2):
     alpha-alpha T2 =       0.5715174813D-01 E2=     -0.1638030067D+00
     alpha-beta  T2 =       0.3618168639D+00 E2=     -0.1089338655D+01
     beta-beta   T2 =       0.5715174813D-01 E2=     -0.1638030067D+00
 The integrals were generated   1 times.
 ANorm=    0.1214956938D+01
 E2 =    -0.1416944669D+01 EUMP2 =    -0.39057215159127D+03
 Leave Link  906 at Fri Sep 17 16:12:33 2021, MaxMem=   524288000 cpu:             244.3 elap:             244.5
 (Enter /opt/gaussian/g16_legacy/l1002.exe)
 Minotr:  Closed shell wavefunction.
          Computing MP2/KS-MP2 derivatives.
          Using Z-Vector for PSCF gradient.
          Skipping F1 and S1 gradient terms here.
          IDoAtm=1111111111111111111111111111
          Frozen-core window.
          Direct CPHF calculation.
          Differentiating once with respect to electric field.
                with respect to dipole field.
          Differentiating once with respect to nuclear coordinates.
          Requested convergence is 1.0D-10 RMS, and 1.0D-09 maximum.
          NewPWx=F KeepS1=T KeepF1=T KeepIn=T MapXYZ=F SortEE=F KeepMc=T.
 Keep R1 ints in memory in canonical form, NReq=425201067.
 FoFCou: FMM=F IPFlag=           0 FMFlag=           0 FMFlg1=           0
         NFxFlg=           0 DoJE=F BraDBF=F KetDBF=F FulRan=T
         wScrn=  0.000000 ICntrl=       600 IOpCl=  0 I1Cent=           0 NGrid=           0
         NMat0=    1 NMatS0=  28920 NMatT0=    0 NMatD0=    1 NMtDS0=    0 NMtDT0=    0
 Symmetry not used in FoFCou.
 Two-electron integral symmetry not used.
          MDV=     524288000 using IRadAn=       5.
          Solving linear equations separately, MaxMat=       0.
          There are     1 degrees of freedom in the 1st order CPHF.  IDoFFX=0 NUNeed=     1.
 LinEq1:  Iter=  0 NonCon=     1 RMS=2.55D-03 Max=3.76D-02 NDo=     1
 AX will form     1 AO Fock derivatives at one time.
 LinEq1:  Iter=  1 NonCon=     1 RMS=6.90D-04 Max=9.74D-03 NDo=     1
 LinEq1:  Iter=  2 NonCon=     1 RMS=1.61D-04 Max=4.14D-03 NDo=     1
 LinEq1:  Iter=  3 NonCon=     1 RMS=4.31D-05 Max=5.07D-04 NDo=     1
 LinEq1:  Iter=  4 NonCon=     1 RMS=1.99D-05 Max=8.55D-04 NDo=     1
 LinEq1:  Iter=  5 NonCon=     1 RMS=5.06D-06 Max=8.27D-05 NDo=     1
 LinEq1:  Iter=  6 NonCon=     1 RMS=1.63D-06 Max=2.68D-05 NDo=     1
 LinEq1:  Iter=  7 NonCon=     1 RMS=4.13D-07 Max=4.19D-06 NDo=     1
 LinEq1:  Iter=  8 NonCon=     1 RMS=1.01D-07 Max=1.86D-06 NDo=     1
 LinEq1:  Iter=  9 NonCon=     1 RMS=2.33D-08 Max=6.32D-07 NDo=     1
 LinEq1:  Iter= 10 NonCon=     1 RMS=6.42D-09 Max=1.62D-07 NDo=     1
 LinEq1:  Iter= 11 NonCon=     1 RMS=1.89D-09 Max=3.63D-08 NDo=     1
 LinEq1:  Iter= 12 NonCon=     1 RMS=4.09D-10 Max=6.41D-09 NDo=     1
 LinEq1:  Iter= 13 NonCon=     1 RMS=1.01D-10 Max=1.10D-09 NDo=     1
 LinEq1:  Iter= 14 NonCon=     1 RMS=3.53D-11 Max=1.12D-09 NDo=     1
 LinEq1:  Iter= 15 NonCon=     0 RMS=1.05D-11 Max=1.52D-10 NDo=     1
 Linear equations converged to 1.000D-10 1.000D-09 after    15 iterations.
 End of Minotr F.D. properties file   721 does not exist.
 End of Minotr F.D. properties file   722 does not exist.
 End of Minotr F.D. properties file   788 does not exist.
 Leave Link 1002 at Fri Sep 17 16:13:07 2021, MaxMem=   524288000 cpu:              33.5 elap:              33.7
 (Enter /opt/gaussian/g16_legacy/l601.exe)
 Copying SCF densities to generalized density rwf, IOpCl= 0 IROHF=0.

 **********************************************************************

            Population analysis using the SCF density.

 **********************************************************************

 Orbital symmetries:
       Occupied  (A) (A) (A) (A) (A) (A) (A) (A) (A) (A) (A) (A)
                 (A) (A) (A) (A) (A) (A) (A) (A) (A) (A) (A) (A)
                 (A) (A) (A) (A) (A) (A) (A) (A) (A) (A) (A) (A)
                 (A) (A) (A)
       Virtual   (A) (A) (A) (A) (A) (A) (A) (A) (A) (A) (A) (A)
                 (A) (A) (A) (A) (A) (A) (A) (A) (A) (A) (A) (A)
                 (A) (A) (A) (A) (A) (A) (A) (A) (A) (A) (A) (A)
                 (A) (A) (A) (A) (A) (A) (A) (A) (A) (A) (A) (A)
                 (A) (A) (A) (A) (A) (A) (A) (A) (A) (A) (A) (A)
                 (A) (A) (A) (A) (A) (A) (A) (A) (A) (A) (A) (A)
                 (A) (A) (A) (A) (A) (A) (A) (A) (A) (A) (A) (A)
                 (A) (A) (A) (A) (A) (A) (A) (A) (A) (A) (A) (A)
                 (A) (A) (A) (A) (A) (A) (A) (A) (A) (A) (A) (A)
                 (A) (A) (A) (A) (A) (A) (A) (A) (A) (A) (A) (A)
                 (A) (A) (A) (A) (A) (A) (A) (A) (A) (A) (A) (A)
                 (A) (A) (A) (A) (A) (A) (A) (A) (A) (A) (A) (A)
                 (A) (A) (A) (A) (A) (A) (A) (A) (A) (A) (A) (A)
                 (A) (A) (A) (A) (A) (A) (A) (A) (A) (A) (A) (A)
                 (A) (A) (A) (A) (A) (A) (A) (A) (A) (A) (A) (A)
                 (A) (A) (A) (A) (A) (A) (A) (A) (A) (A) (A) (A)
                 (A) (A) (A) (A) (A) (A) (A) (A) (A)
 The electronic state is 1-A.
 Alpha  occ. eigenvalues --  -11.23060 -11.22505 -11.22000 -11.21921 -11.21882
 Alpha  occ. eigenvalues --  -11.21651 -11.21554 -11.21485 -11.21457 -11.21438
 Alpha  occ. eigenvalues --   -1.10623  -1.08327  -1.01911  -0.98013  -0.93648
 Alpha  occ. eigenvalues --   -0.91775  -0.86755  -0.82685  -0.70598  -0.69342
 Alpha  occ. eigenvalues --   -0.64584  -0.61545  -0.60102  -0.59030  -0.58088
 Alpha  occ. eigenvalues --   -0.56804  -0.55369  -0.55149  -0.53548  -0.51981
 Alpha  occ. eigenvalues --   -0.51716  -0.51321  -0.50591  -0.49229  -0.48276
 Alpha  occ. eigenvalues --   -0.46013  -0.44273  -0.33355  -0.31525
 Alpha virt. eigenvalues --    0.18455   0.19493   0.22039   0.24453   0.25183
 Alpha virt. eigenvalues --    0.27141   0.28394   0.28931   0.30249   0.30504
 Alpha virt. eigenvalues --    0.31237   0.32116   0.33135   0.33437   0.34030
 Alpha virt. eigenvalues --    0.35676   0.35774   0.36970   0.38998   0.40648
 Alpha virt. eigenvalues --    0.41064   0.42592   0.43321   0.44192   0.45151
 Alpha virt. eigenvalues --    0.51684   0.54045   0.61174   0.62445   0.70139
 Alpha virt. eigenvalues --    0.71101   0.71887   0.74279   0.76417   0.76615
 Alpha virt. eigenvalues --    0.76878   0.78796   0.79455   0.81140   0.82035
 Alpha virt. eigenvalues --    0.83811   0.85655   0.88078   0.91265   0.92026
 Alpha virt. eigenvalues --    0.92894   0.95177   0.97057   0.98262   0.99207
 Alpha virt. eigenvalues --    0.99751   1.00203   1.02303   1.03925   1.06180
 Alpha virt. eigenvalues --    1.07863   1.08638   1.08809   1.11198   1.12389
 Alpha virt. eigenvalues --    1.12561   1.13432   1.14585   1.14926   1.15820
 Alpha virt. eigenvalues --    1.16163   1.16402   1.18222   1.18704   1.20093
 Alpha virt. eigenvalues --    1.20660   1.22065   1.22853   1.25017   1.27541
 Alpha virt. eigenvalues --    1.34172   1.40672   1.41850   1.43739   1.45171
 Alpha virt. eigenvalues --    1.47558   1.53474   1.56257   1.56977   1.58247
 Alpha virt. eigenvalues --    1.59848   1.62720   1.65799   1.69518   1.70788
 Alpha virt. eigenvalues --    1.75330   1.82527   1.92037   1.92196   1.95496
 Alpha virt. eigenvalues --    1.98630   2.01127   2.02849   2.04183   2.08701
 Alpha virt. eigenvalues --    2.09245   2.11123   2.11378   2.13102   2.14507
 Alpha virt. eigenvalues --    2.15426   2.17689   2.19724   2.23576   2.27382
 Alpha virt. eigenvalues --    2.28338   2.29996   2.32200   2.34976   2.35568
 Alpha virt. eigenvalues --    2.35645   2.35783   2.39321   2.39849   2.40350
 Alpha virt. eigenvalues --    2.41280   2.41828   2.43036   2.45165   2.45385
 Alpha virt. eigenvalues --    2.47033   2.48338   2.49337   2.50339   2.54522
 Alpha virt. eigenvalues --    2.56588   2.57720   2.61273   2.62186   2.64355
 Alpha virt. eigenvalues --    2.66338   2.67159   2.72031   2.72994   2.73744
 Alpha virt. eigenvalues --    2.75715   2.77699   2.81093   2.82802   2.85159
 Alpha virt. eigenvalues --    2.87729   2.89153   2.91917   2.93442   2.94436
 Alpha virt. eigenvalues --    2.97093   2.99035   3.01161   3.02602   3.05102
 Alpha virt. eigenvalues --    3.05824   3.06631   3.08506   3.13015   3.15939
 Alpha virt. eigenvalues --    3.17138   3.18162   3.19615   3.20680   3.21263
 Alpha virt. eigenvalues --    3.23191   3.24413   3.26461   3.27246   3.36666
 Alpha virt. eigenvalues --    3.39073   3.44606   3.45619   3.55549   3.57292
 Alpha virt. eigenvalues --    3.58700   3.61059   3.66887   3.73947   3.78198
 Alpha virt. eigenvalues --    3.78866   3.80513   3.81330   3.82329   3.82835
 Alpha virt. eigenvalues --    3.84208   3.85749   3.87659   3.89514   3.91173
 Alpha virt. eigenvalues --    3.95894   4.59094   4.62632   4.74428   4.82815
 Alpha virt. eigenvalues --    4.88836   4.92667   4.93352   5.07549   5.10287
 Alpha virt. eigenvalues --    5.16869
          Condensed to atoms (all electrons):
               1          2          3          4          5          6
     1  C    5.001837   0.412350   0.413502   0.340283  -0.058753  -0.000531
     2  H    0.412350   0.571696  -0.030234  -0.040531   0.003238  -0.000030
     3  H    0.413502  -0.030234   0.588523  -0.045057  -0.004691  -0.000276
     4  C    0.340283  -0.040531  -0.045057   4.955070   0.349337  -0.045811
     5  C   -0.058753   0.003238  -0.004691   0.349337   4.896457   0.400281
     6  H   -0.000531  -0.000030  -0.000276  -0.045811   0.400281   0.594765
     7  H   -0.003555  -0.000016   0.002571  -0.043073   0.397377  -0.035010
     8  H    0.003677  -0.000103   0.000081  -0.041412   0.406179  -0.028075
     9  C   -0.044044  -0.002232   0.001918   0.698832  -0.045933  -0.001034
    10  H    0.003080   0.000060  -0.000114  -0.036537  -0.006482   0.000123
    11  C   -0.007063  -0.002136   0.000138  -0.050677   0.003424  -0.000100
    12  H    0.000227   0.000172   0.000028  -0.001411  -0.000116  -0.000005
    13  H   -0.001829  -0.001334   0.000004  -0.000419   0.000092   0.000000
    14  H    0.000232  -0.000034  -0.000010   0.000593  -0.000100   0.000015
    15  C    0.000597   0.000160  -0.000016  -0.000017  -0.000000  -0.000000
    16  H   -0.000041   0.000014   0.000000   0.000001  -0.000000   0.000000
    17  H   -0.000053  -0.000052  -0.000012  -0.000027  -0.000000   0.000000
    18  H    0.000077  -0.000076  -0.000001  -0.000002   0.000000   0.000000
    19  C   -0.003607   0.001045   0.000615   0.000006  -0.000002   0.000000
    20  C   -0.000101  -0.000042  -0.000000   0.000002  -0.000000  -0.000000
    21  H    0.000022  -0.000005  -0.000001  -0.000000   0.000000   0.000000
    22  H   -0.000003  -0.000002   0.000002   0.000000  -0.000000  -0.000000
    23  H   -0.000004   0.000001   0.000000   0.000000  -0.000000   0.000000
    24  C   -0.063060  -0.000806  -0.000608   0.006129  -0.000158  -0.000086
    25  H    0.000004   0.000213   0.001004  -0.000155   0.000010   0.000012
    26  C    0.326225  -0.039850  -0.044604  -0.057355  -0.000187   0.000810
    27  H   -0.045134   0.004290  -0.002604  -0.001850  -0.000392  -0.000187
    28  H   -0.040298  -0.002145   0.004203  -0.001438   0.000317  -0.000009
               7          8          9         10         11         12
     1  C   -0.003555   0.003677  -0.044044   0.003080  -0.007063   0.000227
     2  H   -0.000016  -0.000103  -0.002232   0.000060  -0.002136   0.000172
     3  H    0.002571   0.000081   0.001918  -0.000114   0.000138   0.000028
     4  C   -0.043073  -0.041412   0.698832  -0.036537  -0.050677  -0.001411
     5  C    0.397377   0.406179  -0.045933  -0.006482   0.003424  -0.000116
     6  H   -0.035010  -0.028075  -0.001034   0.000123  -0.000100  -0.000005
     7  H    0.593636  -0.027610  -0.000426   0.000248  -0.000114   0.000021
     8  H   -0.027610   0.571029  -0.002739   0.002222   0.000137  -0.000004
     9  C   -0.000426  -0.002739   4.939979   0.404874   0.337723  -0.044349
    10  H    0.000248   0.002222   0.404874   0.559358  -0.043633  -0.000221
    11  C   -0.000114   0.000137   0.337723  -0.043633   4.906188   0.400037
    12  H    0.000021  -0.000004  -0.044349  -0.000221   0.400037   0.584204
    13  H   -0.000001   0.000004  -0.041942   0.003315   0.408016  -0.026858
    14  H   -0.000004  -0.000009  -0.042839  -0.002645   0.403007  -0.033269
    15  C   -0.000000  -0.000000   0.000010  -0.000000  -0.000097   0.000002
    16  H    0.000000   0.000000   0.000000   0.000000   0.000002   0.000000
    17  H   -0.000000   0.000000  -0.000032   0.000000   0.000040  -0.000008
    18  H   -0.000000  -0.000000   0.000000  -0.000000  -0.000003  -0.000000
    19  C    0.000000   0.000000   0.000001   0.000000   0.000007  -0.000000
    20  C   -0.000000   0.000000  -0.000000   0.000000  -0.000000   0.000000
    21  H   -0.000000  -0.000000  -0.000000  -0.000000   0.000000  -0.000000
    22  H   -0.000000   0.000000  -0.000000   0.000000   0.000000  -0.000000
    23  H    0.000000   0.000000   0.000000   0.000000  -0.000000   0.000000
    24  C    0.000000   0.000003   0.000070   0.000002  -0.000032   0.000002
    25  H   -0.000002  -0.000000  -0.000002  -0.000000   0.000000   0.000000
    26  C    0.000027  -0.000097  -0.004366  -0.000116   0.000690  -0.000050
    27  H    0.000093  -0.000025   0.000514   0.000004  -0.000030  -0.000000
    28  H    0.000012  -0.000010   0.001215  -0.000044   0.000070   0.000023
              13         14         15         16         17         18
     1  C   -0.001829   0.000232   0.000597  -0.000041  -0.000053   0.000077
     2  H   -0.001334  -0.000034   0.000160   0.000014  -0.000052  -0.000076
     3  H    0.000004  -0.000010  -0.000016   0.000000  -0.000012  -0.000001
     4  C   -0.000419   0.000593  -0.000017   0.000001  -0.000027  -0.000002
     5  C    0.000092  -0.000100  -0.000000  -0.000000  -0.000000   0.000000
     6  H    0.000000   0.000015  -0.000000   0.000000   0.000000   0.000000
     7  H   -0.000001  -0.000004  -0.000000   0.000000  -0.000000  -0.000000
     8  H    0.000004  -0.000009  -0.000000   0.000000   0.000000  -0.000000
     9  C   -0.041942  -0.042839   0.000010   0.000000  -0.000032   0.000000
    10  H    0.003315  -0.002645  -0.000000   0.000000   0.000000  -0.000000
    11  C    0.408016   0.403007  -0.000097   0.000002   0.000040  -0.000003
    12  H   -0.026858  -0.033269   0.000002   0.000000  -0.000008  -0.000000
    13  H    0.573924  -0.030019   0.000009  -0.000006   0.000570   0.000034
    14  H   -0.030019   0.586782  -0.000004  -0.000000   0.000042   0.000000
    15  C    0.000009  -0.000004   4.909205   0.398274   0.406163   0.402441
    16  H   -0.000006  -0.000000   0.398274   0.582531  -0.026278  -0.033099
    17  H    0.000570   0.000042   0.406163  -0.026278   0.568143  -0.030016
    18  H    0.000034   0.000000   0.402441  -0.033099  -0.030016   0.586228
    19  C   -0.000013   0.000000   0.348396  -0.043828  -0.037049  -0.043937
    20  C    0.000000  -0.000000  -0.065361  -0.001683   0.003677  -0.003429
    21  H   -0.000000   0.000000  -0.002139  -0.000371  -0.000072   0.002847
    22  H   -0.000000  -0.000000   0.003694  -0.000079  -0.000108   0.000010
    23  H   -0.000000  -0.000000  -0.001105   0.002553  -0.000023  -0.000507
    24  C    0.000003  -0.000004  -0.043328  -0.000843  -0.002870   0.000448
    25  H   -0.000001   0.000000   0.003366  -0.000126   0.000059  -0.000110
    26  C   -0.000212   0.000091  -0.007534   0.000188  -0.001944   0.000286
    27  H   -0.000008   0.000000   0.000169   0.000032   0.000031  -0.000012
    28  H   -0.000251  -0.000079  -0.002065   0.000056  -0.001169  -0.000043
              19         20         21         22         23         24
     1  C   -0.003607  -0.000101   0.000022  -0.000003  -0.000004  -0.063060
     2  H    0.001045  -0.000042  -0.000005  -0.000002   0.000001  -0.000806
     3  H    0.000615  -0.000000  -0.000001   0.000002   0.000000  -0.000608
     4  C    0.000006   0.000002  -0.000000   0.000000   0.000000   0.006129
     5  C   -0.000002  -0.000000   0.000000  -0.000000  -0.000000  -0.000158
     6  H    0.000000  -0.000000   0.000000  -0.000000   0.000000  -0.000086
     7  H    0.000000  -0.000000  -0.000000  -0.000000   0.000000   0.000000
     8  H    0.000000   0.000000  -0.000000   0.000000   0.000000   0.000003
     9  C    0.000001  -0.000000  -0.000000  -0.000000   0.000000   0.000070
    10  H    0.000000   0.000000  -0.000000   0.000000   0.000000   0.000002
    11  C    0.000007  -0.000000   0.000000   0.000000  -0.000000  -0.000032
    12  H   -0.000000   0.000000  -0.000000  -0.000000   0.000000   0.000002
    13  H   -0.000013   0.000000  -0.000000  -0.000000  -0.000000   0.000003
    14  H    0.000000  -0.000000   0.000000  -0.000000  -0.000000  -0.000004
    15  C    0.348396  -0.065361  -0.002139   0.003694  -0.001105  -0.043328
    16  H   -0.043828  -0.001683  -0.000371  -0.000079   0.002553  -0.000843
    17  H   -0.037049   0.003677  -0.000072  -0.000108  -0.000023  -0.002870
    18  H   -0.043937  -0.003429   0.002847   0.000010  -0.000507   0.000448
    19  C    4.918217   0.352280  -0.044304  -0.040390  -0.045771   0.698178
    20  C    0.352280   4.903232   0.396990   0.405429   0.399257  -0.044861
    21  H   -0.044304   0.396990   0.594298  -0.027369  -0.034906  -0.000548
    22  H   -0.040390   0.405429  -0.027369   0.568006  -0.027560  -0.002385
    23  H   -0.045771   0.399257  -0.034906  -0.027560   0.593103  -0.001136
    24  C    0.698178  -0.044861  -0.000548  -0.002385  -0.001136   4.961520
    25  H   -0.036143  -0.006749   0.000235   0.002177   0.000150   0.402006
    26  C   -0.048256   0.003152  -0.000086   0.000146  -0.000124   0.339918
    27  H    0.000913  -0.000102  -0.000002  -0.000011   0.000012  -0.043337
    28  H    0.000824   0.000071  -0.000004   0.000006   0.000004  -0.043829
              25         26         27         28
     1  C    0.000004   0.326225  -0.045134  -0.040298
     2  H    0.000213  -0.039850   0.004290  -0.002145
     3  H    0.001004  -0.044604  -0.002604   0.004203
     4  C   -0.000155  -0.057355  -0.001850  -0.001438
     5  C    0.000010  -0.000187  -0.000392   0.000317
     6  H    0.000012   0.000810  -0.000187  -0.000009
     7  H   -0.000002   0.000027   0.000093   0.000012
     8  H   -0.000000  -0.000097  -0.000025  -0.000010
     9  C   -0.000002  -0.004366   0.000514   0.001215
    10  H   -0.000000  -0.000116   0.000004  -0.000044
    11  C    0.000000   0.000690  -0.000030   0.000070
    12  H    0.000000  -0.000050  -0.000000   0.000023
    13  H   -0.000001  -0.000212  -0.000008  -0.000251
    14  H    0.000000   0.000091   0.000000  -0.000079
    15  C    0.003366  -0.007534   0.000169  -0.002065
    16  H   -0.000126   0.000188   0.000032   0.000056
    17  H    0.000059  -0.001944   0.000031  -0.001169
    18  H   -0.000110   0.000286  -0.000012  -0.000043
    19  C   -0.036143  -0.048256   0.000913   0.000824
    20  C   -0.006749   0.003152  -0.000102   0.000071
    21  H    0.000235  -0.000086  -0.000002  -0.000004
    22  H    0.002177   0.000146  -0.000011   0.000006
    23  H    0.000150  -0.000124   0.000012   0.000004
    24  C    0.402006   0.339918  -0.043337  -0.043829
    25  H    0.558555  -0.041281  -0.003485   0.003232
    26  C   -0.041281   4.982305   0.413776   0.414871
    27  H   -0.003485   0.413776   0.588466  -0.029597
    28  H    0.003232   0.414871  -0.029597   0.571267
 Mulliken charges:
               1
     1  C   -0.234035
     2  H    0.126389
     3  H    0.115640
     4  C    0.015519
     5  C   -0.339896
     6  H    0.115147
     7  H    0.115823
     8  H    0.116750
     9  C   -0.155199
    10  H    0.116505
    11  C   -0.355595
    12  H    0.121576
    13  H    0.116920
    14  H    0.118252
    15  C   -0.350819
    16  H    0.122704
    17  H    0.120987
    18  H    0.118865
    19  C    0.022819
    20  C   -0.341760
    21  H    0.115414
    22  H    0.118437
    23  H    0.116056
    24  C   -0.160391
    25  H    0.117033
    26  C   -0.236425
    27  H    0.118477
    28  H    0.124808
 Sum of Mulliken charges =  -0.00000
 Mulliken charges with hydrogens summed into heavy atoms:
               1
     1  C    0.007994
     4  C    0.015519
     5  C    0.007825
     9  C   -0.038694
    11  C    0.001153
    15  C    0.011736
    19  C    0.022819
    20  C    0.008146
    24  C   -0.043358
    26  C    0.006860
 Electronic spatial extent (au):  <R**2>=           2423.6672
 Charge=             -0.0000 electrons
 Dipole moment (field-independent basis, Debye):
    X=              0.2948    Y=              0.1263    Z=             -0.0060  Tot=              0.3208
 Quadrupole moment (field-independent basis, Debye-Ang):
   XX=            -64.5120   YY=            -63.6032   ZZ=            -67.0540
   XY=              0.6106   XZ=              0.8629   YZ=             -0.4853
 Traceless Quadrupole moment (field-independent basis, Debye-Ang):
   XX=              0.5444   YY=              1.4532   ZZ=             -1.9976
   XY=              0.6106   XZ=              0.8629   YZ=             -0.4853
 Octapole moment (field-independent basis, Debye-Ang**2):
  XXX=              1.3691  YYY=             -2.7168  ZZZ=              0.1848  XYY=             -0.5716
  XXY=              4.5341  XXZ=             -2.6505  XZZ=              1.5752  YZZ=              1.2287
  YYZ=              1.3694  XYZ=             -0.7535
 Hexadecapole moment (field-independent basis, Debye-Ang**3):
 XXXX=          -2492.3051 YYYY=           -696.1202 ZZZZ=           -174.8284 XXXY=             -2.3485
 XXXZ=             11.9446 YYYX=             -9.3601 YYYZ=             -3.0510 ZZZX=             -0.8368
 ZZZY=             -0.0641 XXYY=           -530.4721 XXZZ=           -456.3149 YYZZ=           -139.1712
 XXYZ=             -4.2440 YYXZ=              3.1960 ZZXY=              4.6974
 N-N= 5.164340637260D+02 E-N=-1.937501830706D+03  KE= 3.886258637278D+02
 No NMR shielding tensors so no spin-rotation constants.
 Leave Link  601 at Fri Sep 17 16:13:07 2021, MaxMem=   524288000 cpu:               0.3 elap:               0.3
 (Enter /opt/gaussian/g16_legacy/l701.exe)
 ... and contract with generalized density number  2.
 Compute integral first derivatives.
 Leave Link  701 at Fri Sep 17 16:13:08 2021, MaxMem=   524288000 cpu:               0.3 elap:               0.3
 (Enter /opt/gaussian/g16_legacy/l702.exe)
 L702 exits ... SP integral derivatives will be done elsewhere.
 Leave Link  702 at Fri Sep 17 16:13:08 2021, MaxMem=   524288000 cpu:               0.1 elap:               0.1
 (Enter /opt/gaussian/g16_legacy/l703.exe)
 Integral derivatives from FoFJK, PRISM(SPDF).
 Compute integral first derivatives, UseDBF=F ICtDFT=           0.
 Calling FoFJK, ICntrl=  10002127 FMM=F ISym2X=0 I1Cent= 0 IOpClX= 0 NMat=1 NMatS=1 NMatT=0.
 FoFJK:  IHMeth= 1 ICntrl=10002127 DoSepK=F KAlg= 0 I1Cent=           0 FoldK=F
 IRaf=         0 NMat=       1 IRICut=       1 DoRegI=T DoRafI=F ISym2E= 0 IDoP0=0 IntGTp=1.
 FoFCou: FMM=F IPFlag=           0 FMFlag=      100000 FMFlg1=         800
         NFxFlg=           0 DoJE=F BraDBF=F KetDBF=F FulRan=T
         wScrn=  0.000000 ICntrl=  10002127 IOpCl=  0 I1Cent=           0 NGrid=           0
         NMat0=    1 NMatS0=      1 NMatT0=    0 NMatD0=    1 NMtDS0=    0 NMtDT0=    0
 Symmetry not used in FoFCou.
 Leave Link  703 at Fri Sep 17 16:13:42 2021, MaxMem=   524288000 cpu:              34.5 elap:              34.5
 (Enter /opt/gaussian/g16_legacy/l716.exe)
 Dipole        = 9.11096320D-02 6.69412737D-02-4.80974504D-03
 ***** Axes restored to original set *****
 -------------------------------------------------------------------
 Center     Atomic                   Forces (Hartrees/Bohr)
 Number     Number              X              Y              Z
 -------------------------------------------------------------------
      1        6          -0.007662664    0.002806285    0.004874089
      2        1          -0.000198892   -0.001723894   -0.004369517
      3        1          -0.001032614    0.000048724   -0.003684019
      4        6          -0.002078255   -0.001911008    0.005784894
      5        6          -0.003076462   -0.000655774   -0.000375551
      6        1           0.000654225   -0.000915995    0.003195251
      7        1           0.000670003   -0.000737689   -0.003241378
      8        1           0.003183989    0.002478248   -0.000609694
      9        6           0.001892410   -0.001719553   -0.002795279
     10        1           0.003080740   -0.001754333   -0.000180697
     11        6           0.001130202    0.002360540   -0.000687701
     12        1           0.000116147    0.002021153   -0.002751520
     13        1          -0.002021520   -0.002228319    0.001538954
     14        1           0.000755252    0.001000903    0.003216811
     15        6          -0.004486415   -0.000354458    0.000079003
     16        1          -0.000012493    0.002091636    0.002327058
     17        1           0.002968488   -0.001577884   -0.000628965
     18        1           0.001191407   -0.001542703   -0.003112980
     19        6           0.001571095   -0.002963215    0.004168427
     20        6           0.001394608   -0.002619081    0.001598916
     21        1           0.000955834   -0.000082892   -0.003385069
     22        1          -0.003543646    0.002227629   -0.001189932
     23        1           0.000186859    0.001877583    0.002810039
     24        6          -0.001872089   -0.002732367   -0.004064460
     25        1           0.000781580    0.003326994   -0.000399826
     26        6           0.006298565    0.001508187   -0.004593660
     27        1          -0.001602275    0.001613293    0.002517717
     28        1           0.000755921    0.000157989    0.003959091
 -------------------------------------------------------------------
 Cartesian Forces:  Max     0.007662664 RMS     0.002571895
 Leave Link  716 at Fri Sep 17 16:13:42 2021, MaxMem=   524288000 cpu:               0.1 elap:               0.1
 (Enter /opt/gaussian/g16_legacy/l103.exe)

 GradGradGradGradGradGradGradGradGradGradGradGradGradGradGradGradGradGrad
 Berny optimization.
 FormGI is forming the generalized inverse of G from B-inverse, IUseBI=4.
 Internal  Forces:  Max     0.004878924 RMS     0.001917397
 Search for a local minimum.
 Step number   1 out of a maximum of  138
 All quantities printed in internal units (Hartrees-Bohrs-Radians)
 RMS Force = .19174D-02 SwitMx=.10000D-02 MixMth= 1
 Mixed Optimization -- RFO/linear search
 Second derivative matrix not updated -- first step.
 ITU=  0
     Eigenvalues ---    0.00343   0.00570   0.00671   0.00680   0.00692
     Eigenvalues ---    0.00714   0.00817   0.01219   0.01287   0.01569
     Eigenvalues ---    0.01640   0.02779   0.02784   0.04017   0.04138
     Eigenvalues ---    0.05349   0.05399   0.06977   0.07035   0.07091
     Eigenvalues ---    0.07092   0.07269   0.07301   0.07348   0.07504
     Eigenvalues ---    0.09277   0.09362   0.12767   0.12843   0.15999
     Eigenvalues ---    0.15999   0.16000   0.16000   0.16000   0.16000
     Eigenvalues ---    0.16000   0.16000   0.16000   0.16000   0.16000
     Eigenvalues ---    0.16000   0.16000   0.16000   0.21858   0.21866
     Eigenvalues ---    0.22000   0.22000   0.24994   0.24997   0.24998
     Eigenvalues ---    0.24999   0.29241   0.30870   0.31636   0.31709
     Eigenvalues ---    0.31802   0.31972   0.32786   0.33862   0.33973
     Eigenvalues ---    0.34059   0.34192   0.34226   0.34229   0.34239
     Eigenvalues ---    0.34245   0.34248   0.34250   0.34263   0.34269
     Eigenvalues ---    0.34293   0.34345   0.34551   0.34558   0.34792
     Eigenvalues ---    0.34853   0.55490   0.55575
 RFO step:  Lambda=-2.95852589D-03 EMin= 3.42925785D-03
 Linear search not attempted -- first point.
 Iteration  1 RMS(Cart)=  0.03967245 RMS(Int)=  0.00072227
 Iteration  2 RMS(Cart)=  0.00093403 RMS(Int)=  0.00016608
 Iteration  3 RMS(Cart)=  0.00000043 RMS(Int)=  0.00016608
 ITry= 1 IFail=0 DXMaxC= 1.58D-01 DCOld= 1.00D+10 DXMaxT= 3.00D-01 DXLimC= 3.00D+00 Rises=F
 Variable       Old X    -DE/DX   Delta X   Delta X   Delta X     New X
                                 (Linear)    (Quad)   (Total)
    R1        2.07230  -0.00333   0.00000  -0.00970  -0.00970   2.06260
    R2        2.07564  -0.00281   0.00000  -0.00821  -0.00821   2.06743
    R3        2.86262  -0.00353   0.00000  -0.01134  -0.01134   2.85128
    R4        2.89502   0.00173   0.00000   0.00587   0.00587   2.90089
    R5        2.84814  -0.00043   0.00000  -0.00136  -0.00136   2.84678
    R6        2.54699  -0.00400   0.00000  -0.00716  -0.00716   2.53982
    R7        2.06839  -0.00181   0.00000  -0.00524  -0.00524   2.06315
    R8        2.06913  -0.00217   0.00000  -0.00628  -0.00628   2.06285
    R9        2.06951  -0.00369   0.00000  -0.01068  -0.01068   2.05883
   R10        2.05914  -0.00219   0.00000  -0.00622  -0.00622   2.05292
   R11        2.82729   0.00305   0.00000   0.00922   0.00922   2.83651
   R12        2.06752  -0.00153   0.00000  -0.00440  -0.00440   2.06312
   R13        2.06411  -0.00292   0.00000  -0.00838  -0.00838   2.05572
   R14        2.06888  -0.00258   0.00000  -0.00748  -0.00748   2.06140
   R15        2.06879  -0.00184   0.00000  -0.00533  -0.00533   2.06346
   R16        2.06398  -0.00278   0.00000  -0.00796  -0.00796   2.05602
   R17        2.07007  -0.00265   0.00000  -0.00768  -0.00768   2.06238
   R18        2.84194  -0.00048   0.00000  -0.00148  -0.00148   2.84047
   R19        2.84680  -0.00077   0.00000  -0.00241  -0.00241   2.84439
   R20        2.54625  -0.00325   0.00000  -0.00581  -0.00581   2.54043
   R21        2.06910  -0.00198   0.00000  -0.00573  -0.00573   2.06336
   R22        2.06945  -0.00396   0.00000  -0.01146  -0.01146   2.05799
   R23        2.06929  -0.00204   0.00000  -0.00592  -0.00592   2.06337
   R24        2.06013  -0.00200   0.00000  -0.00571  -0.00571   2.05442
   R25        2.84508  -0.00151   0.00000  -0.00472  -0.00472   2.84036
   R26        2.07376  -0.00238   0.00000  -0.00693  -0.00693   2.06682
   R27        2.06919  -0.00278   0.00000  -0.00805  -0.00805   2.06114
    A1        1.82985   0.00207   0.00000   0.02251   0.02234   1.85219
    A2        1.93010   0.00044   0.00000   0.00930   0.00934   1.93944
    A3        1.91841  -0.00278   0.00000  -0.02025  -0.02029   1.89812
    A4        1.90265  -0.00069   0.00000  -0.00273  -0.00272   1.89993
    A5        1.92003  -0.00194   0.00000  -0.01721  -0.01724   1.90279
    A6        1.95844   0.00282   0.00000   0.00906   0.00910   1.96754
    A7        2.00831   0.00237   0.00000   0.00969   0.00912   2.01743
    A8        2.17068  -0.00488   0.00000  -0.01893  -0.01946   2.15122
    A9        2.10402   0.00252   0.00000   0.01034   0.00976   2.11378
   A10        1.92808   0.00227   0.00000   0.01213   0.01216   1.94024
   A11        1.92475   0.00166   0.00000   0.00906   0.00907   1.93383
   A12        1.95925  -0.00262   0.00000  -0.01306  -0.01303   1.94622
   A13        1.89496  -0.00308   0.00000  -0.02473  -0.02472   1.87024
   A14        1.87707   0.00055   0.00000   0.00558   0.00562   1.88269
   A15        1.87757   0.00109   0.00000   0.01018   0.01021   1.88779
   A16        2.06965  -0.00193   0.00000  -0.01334  -0.01336   2.05628
   A17        2.22514  -0.00188   0.00000  -0.00840  -0.00842   2.21672
   A18        1.98826   0.00382   0.00000   0.02191   0.02190   2.01016
   A19        1.91728   0.00395   0.00000   0.02325   0.02321   1.94050
   A20        1.98114  -0.00298   0.00000  -0.01836  -0.01827   1.96287
   A21        1.91000   0.00238   0.00000   0.01559   0.01553   1.92554
   A22        1.89287  -0.00095   0.00000  -0.00761  -0.00751   1.88536
   A23        1.88730  -0.00310   0.00000  -0.01894  -0.01912   1.86819
   A24        1.87263   0.00053   0.00000   0.00499   0.00506   1.87768
   A25        1.88442   0.00024   0.00000   0.00329   0.00331   1.88774
   A26        1.89064  -0.00240   0.00000  -0.02161  -0.02159   1.86905
   A27        1.92161   0.00230   0.00000   0.01169   0.01172   1.93333
   A28        1.86368   0.00201   0.00000   0.01701   0.01702   1.88069
   A29        1.97985  -0.00224   0.00000  -0.01034  -0.01032   1.96953
   A30        1.92073   0.00001   0.00000  -0.00081  -0.00079   1.91994
   A31        1.99481   0.00144   0.00000   0.00572   0.00570   2.00050
   A32        2.18255  -0.00327   0.00000  -0.01290  -0.01292   2.16963
   A33        2.10578   0.00183   0.00000   0.00729   0.00727   2.11305
   A34        1.92494   0.00220   0.00000   0.01235   0.01237   1.93731
   A35        1.96065  -0.00277   0.00000  -0.01390  -0.01386   1.94679
   A36        1.92343   0.00175   0.00000   0.00879   0.00881   1.93225
   A37        1.87920   0.00092   0.00000   0.00936   0.00940   1.88860
   A38        1.89476  -0.00313   0.00000  -0.02534  -0.02534   1.86943
   A39        1.87883   0.00092   0.00000   0.00790   0.00794   1.88677
   A40        2.06715  -0.00167   0.00000  -0.01183  -0.01223   2.05492
   A41        2.22724  -0.00227   0.00000  -0.01001  -0.01043   2.21681
   A42        1.98867   0.00396   0.00000   0.02264   0.02221   2.01089
   A43        1.94452   0.00330   0.00000   0.01363   0.01365   1.95817
   A44        1.92090  -0.00238   0.00000  -0.01477  -0.01496   1.90593
   A45        1.92600  -0.00264   0.00000  -0.02488  -0.02495   1.90105
   A46        1.88071   0.00060   0.00000   0.01695   0.01699   1.89770
   A47        1.94646  -0.00052   0.00000  -0.00229  -0.00224   1.94422
   A48        1.84192   0.00155   0.00000   0.01188   0.01162   1.85354
    D1       -2.64266  -0.00174   0.00000  -0.05215  -0.05194  -2.69461
    D2        0.47849  -0.00077   0.00000   0.01005   0.00981   0.48831
    D3       -0.63967   0.00059   0.00000  -0.02150  -0.02126  -0.66093
    D4        2.48149   0.00157   0.00000   0.04070   0.04050   2.52199
[...]
                 (A) (A) (A) (A) (A) (A) (A) (A) (A) (A) (A) (A)
                 (A) (A) (A) (A) (A) (A) (A) (A) (A) (A) (A) (A)
                 (A) (A) (A) (A) (A) (A) (A) (A) (A) (A) (A) (A)
                 (A) (A) (A) (A) (A) (A) (A) (A) (A) (A) (A) (A)
                 (A) (A) (A) (A) (A) (A) (A) (A) (A) (A) (A) (A)
                 (A) (A) (A) (A) (A) (A) (A) (A) (A) (A) (A) (A)
                 (A) (A) (A) (A) (A) (A) (A) (A) (A) (A) (A) (A)
                 (A) (A) (A) (A) (A) (A) (A) (A) (A) (A) (A) (A)
                 (A) (A) (A) (A) (A) (A) (A) (A) (A) (A) (A) (A)
                 (A) (A) (A) (A) (A) (A) (A) (A) (A)
 The electronic state is 1-A.
 Alpha  occ. eigenvalues --  -11.23020 -11.22460 -11.21868 -11.21730 -11.21712
 Alpha  occ. eigenvalues --  -11.21539 -11.21506 -11.21436 -11.21417 -11.21348
 Alpha  occ. eigenvalues --   -1.10821  -1.08492  -1.01823  -0.98143  -0.93838
 Alpha  occ. eigenvalues --   -0.91939  -0.86963  -0.82855  -0.70494  -0.69519
 Alpha  occ. eigenvalues --   -0.64988  -0.61512  -0.60591  -0.58878  -0.58366
 Alpha  occ. eigenvalues --   -0.56774  -0.55298  -0.54966  -0.53295  -0.52261
 Alpha  occ. eigenvalues --   -0.51859  -0.51173  -0.50832  -0.49581  -0.48519
 Alpha  occ. eigenvalues --   -0.46073  -0.44624  -0.33371  -0.31514
 Alpha virt. eigenvalues --    0.18142   0.19779   0.22152   0.24486   0.25192
 Alpha virt. eigenvalues --    0.27439   0.28535   0.28922   0.30318   0.30811
 Alpha virt. eigenvalues --    0.31477   0.32261   0.33202   0.33794   0.34383
 Alpha virt. eigenvalues --    0.35458   0.36114   0.36962   0.39185   0.40602
 Alpha virt. eigenvalues --    0.41328   0.42631   0.43685   0.44252   0.45395
 Alpha virt. eigenvalues --    0.51702   0.54378   0.61070   0.62576   0.70520
 Alpha virt. eigenvalues --    0.71073   0.72196   0.73768   0.76075   0.76177
 Alpha virt. eigenvalues --    0.76620   0.79010   0.79474   0.81070   0.82306
 Alpha virt. eigenvalues --    0.83713   0.85579   0.89117   0.91091   0.91343
 Alpha virt. eigenvalues --    0.92820   0.94745   0.97065   0.98284   0.98818
 Alpha virt. eigenvalues --    0.99710   1.00468   1.01911   1.03844   1.06577
 Alpha virt. eigenvalues --    1.08019   1.08221   1.09393   1.11664   1.12687
 Alpha virt. eigenvalues --    1.13026   1.13870   1.14856   1.15402   1.16045
 Alpha virt. eigenvalues --    1.16257   1.16619   1.18722   1.19116   1.20671
 Alpha virt. eigenvalues --    1.20953   1.23032   1.23885   1.25765   1.28153
 Alpha virt. eigenvalues --    1.34331   1.41722   1.42153   1.44890   1.46395
 Alpha virt. eigenvalues --    1.48456   1.54136   1.55360   1.57256   1.58165
 Alpha virt. eigenvalues --    1.61459   1.63397   1.66485   1.69046   1.69645
 Alpha virt. eigenvalues --    1.73917   1.82243   1.91111   1.93363   1.96231
 Alpha virt. eigenvalues --    1.98688   2.01467   2.02277   2.03942   2.08565
 Alpha virt. eigenvalues --    2.09706   2.10748   2.11744   2.13037   2.14903
 Alpha virt. eigenvalues --    2.15780   2.16940   2.19854   2.23666   2.28347
 Alpha virt. eigenvalues --    2.29590   2.30325   2.33235   2.35347   2.35688
 Alpha virt. eigenvalues --    2.35978   2.36098   2.38923   2.40264   2.41259
 Alpha virt. eigenvalues --    2.42195   2.43169   2.44154   2.45371   2.46084
 Alpha virt. eigenvalues --    2.47201   2.49167   2.49622   2.51174   2.54099
 Alpha virt. eigenvalues --    2.57315   2.58365   2.61888   2.63241   2.64107
 Alpha virt. eigenvalues --    2.67127   2.68175   2.71776   2.73352   2.73474
 Alpha virt. eigenvalues --    2.75815   2.77410   2.80796   2.82634   2.85354
 Alpha virt. eigenvalues --    2.87137   2.89441   2.92178   2.93739   2.94867
 Alpha virt. eigenvalues --    2.97869   2.99094   3.00960   3.02677   3.05807
 Alpha virt. eigenvalues --    3.06402   3.07703   3.09315   3.13762   3.17093
 Alpha virt. eigenvalues --    3.17589   3.19238   3.20046   3.21242   3.22334
 Alpha virt. eigenvalues --    3.24167   3.25050   3.26607   3.27420   3.37866
 Alpha virt. eigenvalues --    3.40355   3.46023   3.46902   3.56200   3.58183
 Alpha virt. eigenvalues --    3.59499   3.62406   3.67928   3.75494   3.78622
 Alpha virt. eigenvalues --    3.80005   3.81570   3.82569   3.83286   3.83898
 Alpha virt. eigenvalues --    3.84750   3.86481   3.87645   3.89820   3.91558
 Alpha virt. eigenvalues --    3.97645   4.59389   4.63170   4.74472   4.82572
 Alpha virt. eigenvalues --    4.88928   4.92582   4.93409   5.07840   5.10766
 Alpha virt. eigenvalues --    5.17766
          Condensed to atoms (all electrons):
               1          2          3          4          5          6
     1  C    5.004768   0.411714   0.414473   0.337355  -0.056085   0.000011
     2  H    0.411714   0.572983  -0.028296  -0.038988   0.003071  -0.000005
     3  H    0.414473  -0.028296   0.587507  -0.046308  -0.004587  -0.000489
     4  C    0.337355  -0.038988  -0.046308   4.952603   0.351934  -0.045679
     5  C   -0.056085   0.003071  -0.004587   0.351934   4.891804   0.400946
     6  H    0.000011  -0.000005  -0.000489  -0.045679   0.400946   0.596034
     7  H   -0.003698  -0.000034   0.002378  -0.041506   0.397495  -0.037541
     8  H    0.003801  -0.000108   0.000106  -0.042765   0.407087  -0.027466
     9  C   -0.047991  -0.001860   0.002531   0.697840  -0.046054  -0.001011
    10  H    0.003272   0.000031  -0.000118  -0.037842  -0.006525   0.000135
    11  C   -0.007749  -0.002811   0.000160  -0.050271   0.003364  -0.000101
    12  H    0.000152   0.000184   0.000017  -0.000627  -0.000106  -0.000004
    13  H   -0.001745  -0.001657   0.000030  -0.000691   0.000109  -0.000003
    14  H    0.000310  -0.000067  -0.000013  -0.000247  -0.000095   0.000017
    15  C    0.000587   0.000200  -0.000015  -0.000018  -0.000000  -0.000000
    16  H   -0.000040   0.000022   0.000000   0.000001  -0.000000  -0.000000
    17  H   -0.000302  -0.000131  -0.000016  -0.000011  -0.000000   0.000000
    18  H    0.000130  -0.000135  -0.000002  -0.000005   0.000000   0.000000
    19  C   -0.004325   0.001388   0.000787   0.000041  -0.000003   0.000000
    20  C   -0.000099  -0.000043  -0.000004   0.000001  -0.000000  -0.000000
    21  H    0.000024  -0.000007  -0.000002  -0.000000   0.000000   0.000000
    22  H   -0.000003  -0.000002   0.000003   0.000000  -0.000000  -0.000000
    23  H   -0.000005   0.000002   0.000000   0.000000  -0.000000   0.000000
    24  C   -0.061827  -0.000504  -0.000900   0.006443  -0.000149  -0.000111
    25  H    0.000175   0.000111   0.001011  -0.000152   0.000010   0.000015
    26  C    0.332330  -0.041801  -0.046074  -0.055544  -0.000661   0.000609
    27  H   -0.046841   0.004515  -0.001931  -0.002075  -0.000289   0.000197
    28  H   -0.042369  -0.003118   0.004477  -0.001813   0.000243  -0.000015
               7          8          9         10         11         12
     1  C   -0.003698   0.003801  -0.047991   0.003272  -0.007749   0.000152
     2  H   -0.000034  -0.000108  -0.001860   0.000031  -0.002811   0.000184
     3  H    0.002378   0.000106   0.002531  -0.000118   0.000160   0.000017
     4  C   -0.041506  -0.042765   0.697840  -0.037842  -0.050271  -0.000627
     5  C    0.397495   0.407087  -0.046054  -0.006525   0.003364  -0.000106
     6  H   -0.037541  -0.027466  -0.001011   0.000135  -0.000101  -0.000004
     7  H    0.591921  -0.026764  -0.000373   0.000216  -0.000105   0.000017
     8  H   -0.026764   0.568858  -0.002890   0.002385   0.000132  -0.000006
     9  C   -0.000373  -0.002890   4.938971   0.404494   0.340494  -0.041523
    10  H    0.000216   0.002385   0.404494   0.558671  -0.041278  -0.001122
    11  C   -0.000105   0.000132   0.340494  -0.041278   4.900974   0.401144
    12  H    0.000017  -0.000006  -0.041523  -0.001122   0.401144   0.583648
    13  H    0.000002   0.000005  -0.043903   0.003299   0.409079  -0.027132
    14  H   -0.000004  -0.000006  -0.041805  -0.001264   0.402169  -0.035462
    15  C    0.000000  -0.000000   0.000015  -0.000000  -0.000147   0.000004
    16  H    0.000000   0.000000   0.000000   0.000000   0.000003   0.000000
    17  H   -0.000000   0.000000  -0.000045   0.000000   0.000074  -0.000013
    18  H   -0.000000  -0.000000   0.000000  -0.000000  -0.000009  -0.000000
    19  C    0.000000   0.000000  -0.000001   0.000000   0.000013  -0.000000
    20  C   -0.000000   0.000000  -0.000000   0.000000  -0.000000   0.000000
    21  H   -0.000000  -0.000000   0.000000  -0.000000  -0.000000  -0.000000
    22  H   -0.000000   0.000000  -0.000000   0.000000   0.000000  -0.000000
    23  H    0.000000   0.000000   0.000000   0.000000   0.000000   0.000000
    24  C    0.000004   0.000004   0.000114   0.000002  -0.000031   0.000002
    25  H   -0.000001  -0.000000  -0.000002  -0.000000   0.000000   0.000000
    26  C    0.000086  -0.000109  -0.004911  -0.000113   0.000577  -0.000037
    27  H    0.000058  -0.000050   0.000760   0.000001  -0.000033  -0.000000
    28  H    0.000006  -0.000005   0.001406  -0.000046  -0.000082   0.000037
              13         14         15         16         17         18
     1  C   -0.001745   0.000310   0.000587  -0.000040  -0.000302   0.000130
     2  H   -0.001657  -0.000067   0.000200   0.000022  -0.000131  -0.000135
     3  H    0.000030  -0.000013  -0.000015   0.000000  -0.000016  -0.000002
     4  C   -0.000691  -0.000247  -0.000018   0.000001  -0.000011  -0.000005
     5  C    0.000109  -0.000095  -0.000000  -0.000000  -0.000000   0.000000
     6  H   -0.000003   0.000017  -0.000000  -0.000000   0.000000   0.000000
     7  H    0.000002  -0.000004   0.000000   0.000000  -0.000000  -0.000000
     8  H    0.000005  -0.000006  -0.000000   0.000000   0.000000  -0.000000
     9  C   -0.043903  -0.041805   0.000015   0.000000  -0.000045   0.000000
    10  H    0.003299  -0.001264  -0.000000   0.000000   0.000000  -0.000000
    11  C    0.409079   0.402169  -0.000147   0.000003   0.000074  -0.000009
    12  H   -0.027132  -0.035462   0.000004   0.000000  -0.000013  -0.000000
    13  H    0.577164  -0.029956  -0.000000  -0.000008   0.000412   0.000079
    14  H   -0.029956   0.586720  -0.000015  -0.000000   0.000114   0.000000
    15  C   -0.000000  -0.000015   4.907254   0.399852   0.407154   0.401208
    16  H   -0.000008  -0.000000   0.399852   0.584669  -0.026060  -0.035759
    17  H    0.000412   0.000114   0.407154  -0.026060   0.568221  -0.028659
    18  H    0.000079   0.000000   0.401208  -0.035759  -0.028659   0.587442
    19  C   -0.000026   0.000001   0.350332  -0.043537  -0.037848  -0.043385
    20  C    0.000000  -0.000000  -0.064931  -0.002223   0.003725  -0.002632
    21  H   -0.000000   0.000000  -0.001975  -0.000456  -0.000068   0.002756
    22  H   -0.000000  -0.000000   0.003785  -0.000053  -0.000113  -0.000032
    23  H   -0.000000  -0.000000  -0.001201   0.002766  -0.000031  -0.000476
    24  C    0.000026  -0.000009  -0.044248  -0.000365  -0.003253  -0.000031
    25  H   -0.000002   0.000000   0.003528  -0.000121   0.000061  -0.000121
    26  C   -0.000737   0.000163  -0.008144   0.000117  -0.002069   0.000367
    27  H   -0.000010  -0.000000   0.000195   0.000021   0.000058  -0.000014
    28  H   -0.000475  -0.000140  -0.002693   0.000113  -0.001675  -0.000076
              19         20         21         22         23         24
     1  C   -0.004325  -0.000099   0.000024  -0.000003  -0.000005  -0.061827
     2  H    0.001388  -0.000043  -0.000007  -0.000002   0.000002  -0.000504
     3  H    0.000787  -0.000004  -0.000002   0.000003   0.000000  -0.000900
     4  C    0.000041   0.000001  -0.000000   0.000000   0.000000   0.006443
     5  C   -0.000003  -0.000000   0.000000  -0.000000  -0.000000  -0.000149
     6  H    0.000000  -0.000000   0.000000  -0.000000   0.000000  -0.000111
     7  H    0.000000  -0.000000  -0.000000  -0.000000   0.000000   0.000004
     8  H    0.000000   0.000000  -0.000000   0.000000   0.000000   0.000004
     9  C   -0.000001  -0.000000   0.000000  -0.000000   0.000000   0.000114
    10  H    0.000000   0.000000  -0.000000   0.000000   0.000000   0.000002
    11  C    0.000013  -0.000000  -0.000000   0.000000   0.000000  -0.000031
    12  H   -0.000000   0.000000  -0.000000  -0.000000   0.000000   0.000002
    13  H   -0.000026   0.000000  -0.000000  -0.000000  -0.000000   0.000026
    14  H    0.000001  -0.000000   0.000000  -0.000000  -0.000000  -0.000009
    15  C    0.350332  -0.064931  -0.001975   0.003785  -0.001201  -0.044248
    16  H   -0.043537  -0.002223  -0.000456  -0.000053   0.002766  -0.000365
    17  H   -0.037848   0.003725  -0.000068  -0.000113  -0.000031  -0.003253
    18  H   -0.043385  -0.002632   0.002756  -0.000032  -0.000476  -0.000031
    19  C    4.914192   0.353753  -0.043899  -0.041639  -0.044274   0.697734
    20  C    0.353753   4.900112   0.398238   0.406218   0.398811  -0.044415
    21  H   -0.043899   0.398238   0.594542  -0.026703  -0.037806  -0.000422
    22  H   -0.041639   0.406218  -0.026703   0.566018  -0.026549  -0.002632
    23  H   -0.044274   0.398811  -0.037806  -0.026549   0.593607  -0.001270
    24  C    0.697734  -0.044415  -0.000422  -0.002632  -0.001270   4.962746
    25  H   -0.038449  -0.006963   0.000182   0.002335   0.000187   0.403391
    26  C   -0.050100   0.003126  -0.000068   0.000148  -0.000131   0.338699
    27  H    0.001583  -0.000094  -0.000002  -0.000010   0.000009  -0.041395
    28  H    0.000438   0.000051  -0.000005   0.000007   0.000007  -0.044060
              25         26         27         28
     1  C    0.000175   0.332330  -0.046841  -0.042369
     2  H    0.000111  -0.041801   0.004515  -0.003118
     3  H    0.001011  -0.046074  -0.001931   0.004477
     4  C   -0.000152  -0.055544  -0.002075  -0.001813
     5  C    0.000010  -0.000661  -0.000289   0.000243
     6  H    0.000015   0.000609   0.000197  -0.000015
     7  H   -0.000001   0.000086   0.000058   0.000006
     8  H   -0.000000  -0.000109  -0.000050  -0.000005
     9  C   -0.000002  -0.004911   0.000760   0.001406
    10  H   -0.000000  -0.000113   0.000001  -0.000046
    11  C    0.000000   0.000577  -0.000033  -0.000082
    12  H    0.000000  -0.000037  -0.000000   0.000037
    13  H   -0.000002  -0.000737  -0.000010  -0.000475
    14  H    0.000000   0.000163  -0.000000  -0.000140
    15  C    0.003528  -0.008144   0.000195  -0.002693
    16  H   -0.000121   0.000117   0.000021   0.000113
    17  H    0.000061  -0.002069   0.000058  -0.001675
    18  H   -0.000121   0.000367  -0.000014  -0.000076
    19  C   -0.038449  -0.050100   0.001583   0.000438
    20  C   -0.006963   0.003126  -0.000094   0.000051
    21  H    0.000182  -0.000068  -0.000002  -0.000005
    22  H    0.002335   0.000148  -0.000010   0.000007
    23  H    0.000187  -0.000131   0.000009   0.000007
    24  C    0.403391   0.338699  -0.041395  -0.044060
    25  H    0.557389  -0.039114  -0.003424   0.003152
    26  C   -0.039114   4.979543   0.413482   0.415850
    27  H   -0.003424   0.413482   0.585267  -0.028362
    28  H    0.003152   0.415850  -0.028362   0.575347
 Mulliken charges:
               1
     1  C   -0.236021
     2  H    0.125346
     3  H    0.115272
     4  C    0.018322
     5  C   -0.341505
     6  H    0.114461
     7  H    0.117844
     8  H    0.117792
     9  C   -0.154256
    10  H    0.115801
    11  C   -0.355567
    12  H    0.120829
    13  H    0.116140
    14  H    0.119588
    15  C   -0.350727
    16  H    0.121058
    17  H    0.120474
    18  H    0.119352
    19  C    0.027221
    20  C   -0.342631
    21  H    0.115672
    22  H    0.119222
    23  H    0.116356
    24  C   -0.163542
    25  H    0.116803
    26  C   -0.235486
    27  H    0.118380
    28  H    0.123802
 Sum of Mulliken charges =  -0.00000
 Mulliken charges with hydrogens summed into heavy atoms:
               1
     1  C    0.004596
     4  C    0.018322
     5  C    0.008593
     9  C   -0.038454
    11  C    0.000991
    15  C    0.010156
    19  C    0.027221
    20  C    0.008618
    24  C   -0.046739
    26  C    0.006696
 Electronic spatial extent (au):  <R**2>=           2384.0082
 Charge=             -0.0000 electrons
 Dipole moment (field-independent basis, Debye):
    X=              0.3027    Y=              0.1253    Z=              0.0460  Tot=              0.3308
 Quadrupole moment (field-independent basis, Debye-Ang):
   XX=            -64.3024   YY=            -63.2901   ZZ=            -67.3956
   XY=              0.7521   XZ=              1.2367   YZ=             -0.3487
 Traceless Quadrupole moment (field-independent basis, Debye-Ang):
   XX=              0.6937   YY=              1.7059   ZZ=             -2.3996
   XY=              0.7521   XZ=              1.2367   YZ=             -0.3487
 Octapole moment (field-independent basis, Debye-Ang**2):
  XXX=              2.6683  YYY=             -2.9989  ZZZ=              0.8999  XYY=             -0.6416
  XXY=              4.0909  XXZ=             -2.0918  XZZ=              1.2120  YZZ=              1.4955
  YYZ=              0.6111  XYZ=             -0.3641
 Hexadecapole moment (field-independent basis, Debye-Ang**3):
 XXXX=          -2435.7196 YYYY=           -693.4920 ZZZZ=           -166.6418 XXXY=              2.3047
 XXXZ=             14.7514 YYYX=            -11.0526 YYYZ=             -1.4215 ZZZX=              2.8119
 ZZZY=             -0.6410 XXYY=           -520.1252 XXZZ=           -449.2345 YYZZ=           -138.3649
 XXYZ=             -4.2785 YYXZ=              0.5786 ZZXY=              5.9187
 N-N= 5.190878950320D+02 E-N=-1.942888529123D+03  KE= 3.887471637583D+02
 No NMR shielding tensors so no spin-rotation constants.
 Leave Link  601 at Fri Sep 17 17:19:19 2021, MaxMem=   524288000 cpu:               0.3 elap:               0.5
 (Enter /opt/gaussian/g16_legacy/l9999.exe)
 1\1\GINC-TRUENO91\FOpt\RMP2-FC\6-31G(d,p)\C10H18\JRAMOS\17-Sep-2021\0\
 \#p opt mp2/6-31g(d,p)\\Conformer number 608. Energy MM = 23.242 kcal/
 mol\\0,1\C,-0.3083222511,-0.7221514492,0.6616989927\H,-0.1903420958,0.
 2852979948,1.0637461625\H,0.3116430042,-1.3739067983,1.2840700039\C,-1
 .7430710382,-1.181225735,0.7312425864\C,-1.9422221605,-2.6623560861,0.
 9045716529\H,-1.4242824741,-3.221271679,0.1219931938\H,-1.5332908674,-
 2.9999640929,1.8593601579\H,-2.9972108594,-2.9312798133,0.8699601042\C
 ,-2.7947158875,-0.3519351322,0.5960692103\H,-3.7890155927,-0.788315605
 4,0.6345824677\C,-2.7514226565,1.1322747204,0.3931183783\H,-3.27437932
 22,1.6523626908,1.1979700915\H,-1.7342067505,1.5150181123,0.3511131095
 \H,-3.2487031457,1.4081556061,-0.538711992\C,1.4244338094,2.0557947792
 ,-1.3862669968\H,1.6830855639,2.4434747804,-2.3741842045\H,0.351805325
 8,1.8811135406,-1.359845105\H,1.6547106213,2.8452017209,-0.6674869435\
 C,2.227732038,0.8231313928,-1.0762399128\C,3.7170623766,1.0306736228,-
 1.0597858041\H,3.9977853859,1.7789454894,-0.3151436064\H,4.2472480312,
 0.107012468,-0.832823823\H,4.0686998444,1.3986646757,-2.0263406093\C,1
 .6955376442,-0.3890710161,-0.8310863808\H,2.3820121045,-1.198869253,-0
 .5969654683\C,0.2382106108,-0.7402722688,-0.7787369145\H,0.0906198871,
 -1.7371882313,-1.2025497987\H,-0.359301146,-0.0594144339,-1.3862285518
 \\Version=EM64L-G16RevA.03\State=1-A\HF=-389.1567535\MP2=-390.5738646\
 RMSD=5.129e-09\RMSF=3.193e-06\Dipole=0.0575013,0.0976488,-0.0259573\PG
 =C01 [X(C10H18)]\\@


 I DO NOT KNOW WHAT I MAY APPEAR TO THE WORLD; BUT TO MYSELF
 I SEEM TO HAVE BEEN ONLY LIKE A BOY PLAYING ON THE SEASHORE,
 AND DIVERTING MYSELF IN NOW AND THEN FINDING A SMOOTHER PEBBLE
 OR A PRETTIER SHELL THAN ORDINARY, WHILST THE GREAT OCEAN OF
 TRUTH LAY ALL UNDISCOVERED BEFORE ME.
                                          -- NEWTON (1642-1726)
 Job cpu time:       0 days  1 hours 11 minutes 27.8 seconds.
 Elapsed time:       0 days  1 hours 11 minutes 35.7 seconds.
 File lengths (MBytes):  RWF=     32 Int=      0 D2E=      0 Chk=      7 Scr=      1
 Normal termination of Gaussian 16 at Fri Sep 17 17:19:20 2021.
