 Entering Gaussian System, Link 0=/opt/gaussian/g16_legacy/g16
 Input=01-IsoP_2976_gaussian.com
 Output=01-IsoP_2976_gaussian.log
 Initial command:
 /opt/gaussian/g16_legacy/l1.exe "/scratch-local/jramos/2661387/Gau-7139.inp" -scrdir="/scratch-local/jramos/2661387/"
 Entering Link 1 = /opt/gaussian/g16_legacy/l1.exe PID=      7144.
  
 Copyright (c) 1988,1990,1992,1993,1995,1998,2003,2009,2016,
            Gaussian, Inc.  All Rights Reserved.
  
 This is part of the Gaussian(R) 16 program.  It is based on
 the Gaussian(R) 09 system (copyright 2009, Gaussian, Inc.),
 the Gaussian(R) 03 system (copyright 2003, Gaussian, Inc.),
 the Gaussian(R) 98 system (copyright 1998, Gaussian, Inc.),
 the Gaussian(R) 94 system (copyright 1995, Gaussian, Inc.),
 the Gaussian 92(TM) system (copyright 1992, Gaussian, Inc.),
 the Gaussian 90(TM) system (copyright 1990, Gaussian, Inc.),
 the Gaussian 88(TM) system (copyright 1988, Gaussian, Inc.),
 the Gaussian 86(TM) system (copyright 1986, Carnegie Mellon
 University), and the Gaussian 82(TM) system (copyright 1983,
 Carnegie Mellon University). Gaussian is a federally registered
 trademark of Gaussian, Inc.
  
 This software contains proprietary and confidential information,
 including trade secrets, belonging to Gaussian, Inc.
  
 This software is provided under written license and may be
 used, copied, transmitted, or stored only in accord with that
 written license.
  
 The following legend is applicable only to US Government
 contracts under FAR:
  
                    RESTRICTED RIGHTS LEGEND
  
 Use, reproduction and disclosure by the US Government is
 subject to restrictions as set forth in subparagraphs (a)
 and (c) of the Commercial Computer Software - Restricted
 Rights clause in FAR 52.227-19.
  
 Gaussian, Inc.
 340 Quinnipiac St., Bldg. 40, Wallingford CT 06492
  
  
 ---------------------------------------------------------------
 Warning -- This program may not be used in any manner that
 competes with the business of Gaussian, Inc. or will provide
 assistance to any competitor of Gaussian, Inc.  The licensee
 of this program is prohibited from giving any competitor of
 Gaussian, Inc. access to this program.  By using this program,
 the user acknowledges that Gaussian, Inc. is engaged in the
 business of creating and licensing software in the field of
 computational chemistry and represents and warrants to the
 licensee that it is not a competitor of Gaussian, Inc. and that
 it will not use this program in any manner prohibited above.
 ---------------------------------------------------------------
  

 Cite this work as:
 Gaussian 16, Revision A.03,
 M. J. Frisch, G. W. Trucks, H. B. Schlegel, G. E. Scuseria, 
 M. A. Robb, J. R. Cheeseman, G. Scalmani, V. Barone, 
 G. A. Petersson, H. Nakatsuji, X. Li, M. Caricato, A. V. Marenich, 
 J. Bloino, B. G. Janesko, R. Gomperts, B. Mennucci, H. P. Hratchian, 
 J. V. Ortiz, A. F. Izmaylov, J. L. Sonnenberg, D. Williams-Young, 
 F. Ding, F. Lipparini, F. Egidi, J. Goings, B. Peng, A. Petrone, 
 T. Henderson, D. Ranasinghe, V. G. Zakrzewski, J. Gao, N. Rega, 
 G. Zheng, W. Liang, M. Hada, M. Ehara, K. Toyota, R. Fukuda, 
 J. Hasegawa, M. Ishida, T. Nakajima, Y. Honda, O. Kitao, H. Nakai, 
 T. Vreven, K. Throssell, J. A. Montgomery, Jr., J. E. Peralta, 
 F. Ogliaro, M. J. Bearpark, J. J. Heyd, E. N. Brothers, K. N. Kudin, 
 V. N. Staroverov, T. A. Keith, R. Kobayashi, J. Normand, 
 K. Raghavachari, A. P. Rendell, J. C. Burant, S. S. Iyengar, 
 J. Tomasi, M. Cossi, J. M. Millam, M. Klene, C. Adamo, R. Cammi, 
 J. W. Ochterski, R. L. Martin, K. Morokuma, O. Farkas, 
 J. B. Foresman, and D. J. Fox, Gaussian, Inc., Wallingford CT, 2016.
 
 ******************************************
 Gaussian 16:  EM64L-G16RevA.03 25-Dec-2016
                17-Sep-2021 
 ******************************************
 %chk=01-IsoP_2976_gaussian.chk
 %nproc=1
 Will use up to    1 processors via shared memory.
 %mem=4000Mb
 ---------------------
 #p opt mp2/6-31g(d,p)
 ---------------------
 1/18=20,19=15,38=1/1,3;
 2/9=110,12=2,17=6,18=5,40=1/2;
 3/5=1,6=6,7=101,11=9,25=1,30=1,71=1/1,2,3;
 4//1;
 5/5=2,38=5/2;
 8/6=4,10=2/1;
 9/15=2,16=-3/6;
 10/5=1/2;
 6/7=2,8=2,9=2,10=2/1;
 7/12=2/1,2,3,16;
 1/18=20,19=15/3(2);
 2/9=110/2;
 99//99;
 2/9=110/2;
 3/5=1,6=6,7=101,11=9,25=1,30=1,71=1/1,2,3;
 4/5=5,16=3,69=1/1;
 5/5=2,38=5/2;
 8/6=4,10=2/1;
 9/15=2,16=-3/6;
 10/5=1/2;
 7/12=2/1,2,3,16;
 1/18=20,19=15/3(-8);
 2/9=110/2;
 6/7=2,8=2,9=2,10=2/1;
 99//99;
 Leave Link    1 at Fri Sep 17 14:54:03 2021, MaxMem=   524288000 cpu:               0.0 elap:               0.2
 (Enter /opt/gaussian/g16_legacy/l101.exe)
 --------------------------------------------------
 Conformer number 2976. Energy MM = 23.287 kcal/mol
 --------------------------------------------------
 Symbolic Z-matrix:
 Charge =  0 Multiplicity = 1
 C                     0.7663    0.6049   -0.2418 
 H                     0.3331    1.0986    0.6385 
 H                     0.8114    1.3872   -1.0089 
 C                     2.1573    0.1148    0.104 
 C                     2.3167   -0.411     1.5077 
 H                     2.0704    0.3691    2.2355 
 H                     3.3401   -0.7431    1.7125 
 H                     1.6531   -1.2653    1.6746 
 C                     3.2095    0.1505   -0.7375 
 H                     4.1749   -0.2066   -0.3799 
 C                     3.2238    0.6143   -2.1596 
 H                     3.6734   -0.1593   -2.7907 
 H                     3.8299    1.5209   -2.2487 
 H                     2.2291    0.8224   -2.5598 
 C                    -3.9535    0.4187   -0.8811 
 H                    -4.3422    1.1972   -0.2165 
 H                    -4.6962   -0.3827   -0.9511 
 H                    -3.8436    0.8576   -1.8784 
 C                    -2.6528   -0.1224   -0.3472 
 C                    -2.7555   -0.7446    1.018 
 H                    -3.2317   -0.0459    1.7145 
 H                    -1.7869   -1.0081    1.4488 
 H                    -3.3639   -1.6536    0.9725 
 C                    -1.5191   -0.0207   -1.0683 
 H                    -1.5646    0.4691   -2.0412 
 C                    -0.1501   -0.5317   -0.7061 
 H                    -0.2047   -1.3178    0.0535 
 H                     0.2758   -1.0125   -1.5964 
 
 ITRead=  0  0  0  0  0  0  0  0  0  0  0  0  0  0  0  0  0  0  0  0
 ITRead=  0  0  0  0  0  0  0  0
 MicOpt= -1 -1 -1 -1 -1 -1 -1 -1 -1 -1 -1 -1 -1 -1 -1 -1 -1 -1 -1 -1
 MicOpt= -1 -1 -1 -1 -1 -1 -1 -1
 NAtoms=     28 NQM=       28 NQMF=       0 NMMI=      0 NMMIF=      0
                NMic=       0 NMicF=      0.
                    Isotopes and Nuclear Properties:
 (Nuclear quadrupole moments (NQMom) in fm**2, nuclear magnetic moments (NMagM)
  in nuclear magnetons)

  Atom         1           2           3           4           5           6           7           8           9          10
 IAtWgt=          12           1           1          12          12           1           1           1          12           1
 AtmWgt=  12.0000000   1.0078250   1.0078250  12.0000000  12.0000000   1.0078250   1.0078250   1.0078250  12.0000000   1.0078250
 NucSpn=           0           1           1           0           0           1           1           1           0           1
 AtZEff=  -0.0000000  -0.0000000  -0.0000000  -0.0000000  -0.0000000  -0.0000000  -0.0000000  -0.0000000  -0.0000000  -0.0000000
 NQMom=    0.0000000   0.0000000   0.0000000   0.0000000   0.0000000   0.0000000   0.0000000   0.0000000   0.0000000   0.0000000
 NMagM=    0.0000000   2.7928460   2.7928460   0.0000000   0.0000000   2.7928460   2.7928460   2.7928460   0.0000000   2.7928460
 AtZNuc=   6.0000000   1.0000000   1.0000000   6.0000000   6.0000000   1.0000000   1.0000000   1.0000000   6.0000000   1.0000000

  Atom        11          12          13          14          15          16          17          18          19          20
 IAtWgt=          12           1           1           1          12           1           1           1          12          12
 AtmWgt=  12.0000000   1.0078250   1.0078250   1.0078250  12.0000000   1.0078250   1.0078250   1.0078250  12.0000000  12.0000000
 NucSpn=           0           1           1           1           0           1           1           1           0           0
 AtZEff=  -0.0000000  -0.0000000  -0.0000000  -0.0000000  -0.0000000  -0.0000000  -0.0000000  -0.0000000  -0.0000000  -0.0000000
 NQMom=    0.0000000   0.0000000   0.0000000   0.0000000   0.0000000   0.0000000   0.0000000   0.0000000   0.0000000   0.0000000
 NMagM=    0.0000000   2.7928460   2.7928460   2.7928460   0.0000000   2.7928460   2.7928460   2.7928460   0.0000000   0.0000000
 AtZNuc=   6.0000000   1.0000000   1.0000000   1.0000000   6.0000000   1.0000000   1.0000000   1.0000000   6.0000000   6.0000000

  Atom        21          22          23          24          25          26          27          28
 IAtWgt=           1           1           1          12           1          12           1           1
 AtmWgt=   1.0078250   1.0078250   1.0078250  12.0000000   1.0078250  12.0000000   1.0078250   1.0078250
 NucSpn=           1           1           1           0           1           0           1           1
 AtZEff=  -0.0000000  -0.0000000  -0.0000000  -0.0000000  -0.0000000  -0.0000000  -0.0000000  -0.0000000
 NQMom=    0.0000000   0.0000000   0.0000000   0.0000000   0.0000000   0.0000000   0.0000000   0.0000000
 NMagM=    2.7928460   2.7928460   2.7928460   0.0000000   2.7928460   0.0000000   2.7928460   2.7928460
 AtZNuc=   1.0000000   1.0000000   1.0000000   6.0000000   1.0000000   6.0000000   1.0000000   1.0000000
 Leave Link  101 at Fri Sep 17 14:54:03 2021, MaxMem=   524288000 cpu:               0.3 elap:               0.3
 (Enter /opt/gaussian/g16_legacy/l103.exe)

 GradGradGradGradGradGradGradGradGradGradGradGradGradGradGradGradGradGrad
 Berny optimization.
 Initialization pass.
                           ----------------------------
                           !    Initial Parameters    !
                           ! (Angstroms and Degrees)  !
 --------------------------                            --------------------------
 ! Name  Definition              Value          Derivative Info.                !
 --------------------------------------------------------------------------------
 ! R1    R(1,2)                  1.0983         estimate D2E/DX2                !
 ! R2    R(1,3)                  1.0966         estimate D2E/DX2                !
 ! R3    R(1,4)                  1.5148         estimate D2E/DX2                !
 ! R4    R(1,26)                 1.5321         estimate D2E/DX2                !
 ! R5    R(4,5)                  1.5074         estimate D2E/DX2                !
 ! R6    R(4,9)                  1.3478         estimate D2E/DX2                !
 ! R7    R(5,6)                  1.0949         estimate D2E/DX2                !
 ! R8    R(5,7)                  1.0953         estimate D2E/DX2                !
 ! R9    R(5,8)                  1.0946         estimate D2E/DX2                !
 ! R10   R(9,10)                 1.0897         estimate D2E/DX2                !
 ! R11   R(9,11)                 1.4959         estimate D2E/DX2                !
 ! R12   R(11,12)                1.0949         estimate D2E/DX2                !
 ! R13   R(11,13)                1.0942         estimate D2E/DX2                !
 ! R14   R(11,14)                1.0922         estimate D2E/DX2                !
 ! R15   R(15,16)                1.0949         estimate D2E/DX2                !
 ! R16   R(15,17)                1.0949         estimate D2E/DX2                !
 ! R17   R(15,18)                1.0951         estimate D2E/DX2                !
 ! R18   R(15,19)                1.5065         estimate D2E/DX2                !
 ! R19   R(19,20)                1.5038         estimate D2E/DX2                !
 ! R20   R(19,24)                1.3474         estimate D2E/DX2                !
 ! R21   R(20,21)                1.0955         estimate D2E/DX2                !
 ! R22   R(20,22)                1.0923         estimate D2E/DX2                !
 ! R23   R(20,23)                1.0948         estimate D2E/DX2                !
 ! R24   R(24,25)                1.0902         estimate D2E/DX2                !
 ! R25   R(24,26)                1.5055         estimate D2E/DX2                !
 ! R26   R(26,27)                1.0945         estimate D2E/DX2                !
 ! R27   R(26,28)                1.0978         estimate D2E/DX2                !
 ! A1    A(2,1,3)              104.846          estimate D2E/DX2                !
 ! A2    A(2,1,4)              108.9442         estimate D2E/DX2                !
 ! A3    A(2,1,26)             109.9042         estimate D2E/DX2                !
 ! A4    A(3,1,4)              110.6549         estimate D2E/DX2                !
 ! A5    A(3,1,26)             109.9901         estimate D2E/DX2                !
 ! A6    A(4,1,26)             112.2355         estimate D2E/DX2                !
 ! A7    A(1,4,5)              114.9945         estimate D2E/DX2                !
 ! A8    A(1,4,9)              124.4566         estimate D2E/DX2                !
 ! A9    A(5,4,9)              120.5368         estimate D2E/DX2                !
 ! A10   A(4,5,6)              110.2834         estimate D2E/DX2                !
 ! A11   A(4,5,7)              112.2531         estimate D2E/DX2                !
 ! A12   A(4,5,8)              110.4953         estimate D2E/DX2                !
 ! A13   A(6,5,7)              107.5732         estimate D2E/DX2                !
 ! A14   A(6,5,8)              108.5626         estimate D2E/DX2                !
 ! A15   A(7,5,8)              107.5373         estimate D2E/DX2                !
 ! A16   A(4,9,10)             118.5598         estimate D2E/DX2                !
 ! A17   A(4,9,11)             127.5343         estimate D2E/DX2                !
 ! A18   A(10,9,11)            113.8987         estimate D2E/DX2                !
 ! A19   A(9,11,12)            109.4398         estimate D2E/DX2                !
 ! A20   A(9,11,13)            109.853          estimate D2E/DX2                !
 ! A21   A(9,11,14)            113.4977         estimate D2E/DX2                !
 ! A22   A(12,11,13)           108.1204         estimate D2E/DX2                !
 ! A23   A(12,11,14)           107.3005         estimate D2E/DX2                !
 ! A24   A(13,11,14)           108.4682         estimate D2E/DX2                !
 ! A25   A(16,15,17)           108.5676         estimate D2E/DX2                !
 ! A26   A(16,15,18)           107.6639         estimate D2E/DX2                !
 ! A27   A(16,15,19)           110.2895         estimate D2E/DX2                !
 ! A28   A(17,15,18)           107.6499         estimate D2E/DX2                !
 ! A29   A(17,15,19)           110.2077         estimate D2E/DX2                !
 ! A30   A(18,15,19)           112.3357         estimate D2E/DX2                !
 ! A31   A(15,19,20)           114.2907         estimate D2E/DX2                !
 ! A32   A(15,19,24)           120.6406         estimate D2E/DX2                !
 ! A33   A(20,19,24)           125.0661         estimate D2E/DX2                !
 ! A34   A(19,20,21)           110.0591         estimate D2E/DX2                !
 ! A35   A(19,20,22)           113.4083         estimate D2E/DX2                !
 ! A36   A(19,20,23)           110.1064         estimate D2E/DX2                !
 ! A37   A(21,20,22)           106.7719         estimate D2E/DX2                !
 ! A38   A(21,20,23)           108.3264         estimate D2E/DX2                !
 ! A39   A(22,20,23)           107.9918         estimate D2E/DX2                !
 ! A40   A(19,24,25)           118.4493         estimate D2E/DX2                !
 ! A41   A(19,24,26)           127.6419         estimate D2E/DX2                !
 ! A42   A(25,24,26)           113.9008         estimate D2E/DX2                !
 ! A43   A(1,26,24)            111.4089         estimate D2E/DX2                !
 ! A44   A(1,26,27)            110.6311         estimate D2E/DX2                !
 ! A45   A(1,26,28)            109.7934         estimate D2E/DX2                !
 ! A46   A(24,26,27)           111.4318         estimate D2E/DX2                !
 ! A47   A(24,26,28)           107.8381         estimate D2E/DX2                !
 ! A48   A(27,26,28)           105.5231         estimate D2E/DX2                !
 ! D1    D(2,1,4,5)             36.9565         estimate D2E/DX2                !
 ! D2    D(2,1,4,9)           -141.7837         estimate D2E/DX2                !
 ! D3    D(3,1,4,5)            151.7213         estimate D2E/DX2                !
 ! D4    D(3,1,4,9)            -27.0189         estimate D2E/DX2                !
 ! D5    D(26,1,4,5)           -84.9938         estimate D2E/DX2                !
 ! D6    D(26,1,4,9)            96.266          estimate D2E/DX2                !
 ! D7    D(2,1,26,24)           59.6226         estimate D2E/DX2                !
 ! D8    D(2,1,26,27)          -64.9175         estimate D2E/DX2                !
 ! D9    D(2,1,26,28)          179.0155         estimate D2E/DX2                !
 ! D10   D(3,1,26,24)          -55.3184         estimate D2E/DX2                !
 ! D11   D(3,1,26,27)         -179.8586         estimate D2E/DX2                !
 ! D12   D(3,1,26,28)           64.0745         estimate D2E/DX2                !
 ! D13   D(4,1,26,24)         -178.9757         estimate D2E/DX2                !
 ! D14   D(4,1,26,27)           56.4841         estimate D2E/DX2                !
 ! D15   D(4,1,26,28)          -59.5828         estimate D2E/DX2                !
 ! D16   D(1,4,5,6)            -59.4747         estimate D2E/DX2                !
 ! D17   D(1,4,5,7)           -179.4093         estimate D2E/DX2                !
 ! D18   D(1,4,5,8)             60.5562         estimate D2E/DX2                !
 ! D19   D(9,4,5,6)            119.3192         estimate D2E/DX2                !
 ! D20   D(9,4,5,7)             -0.6153         estimate D2E/DX2                !
 ! D21   D(9,4,5,8)           -120.6499         estimate D2E/DX2                !
 ! D22   D(1,4,9,10)           178.5606         estimate D2E/DX2                !
 ! D23   D(1,4,9,11)            -2.4857         estimate D2E/DX2                !
 ! D24   D(5,4,9,10)            -0.1137         estimate D2E/DX2                !
 ! D25   D(5,4,9,11)           178.84           estimate D2E/DX2                !
 ! D26   D(4,9,11,12)         -127.8615         estimate D2E/DX2                !
 ! D27   D(4,9,11,13)          113.5777         estimate D2E/DX2                !
 ! D28   D(4,9,11,14)           -8.0385         estimate D2E/DX2                !
 ! D29   D(10,9,11,12)          51.1333         estimate D2E/DX2                !
 ! D30   D(10,9,11,13)         -67.4275         estimate D2E/DX2                !
 ! D31   D(10,9,11,14)         170.9563         estimate D2E/DX2                !
 ! D32   D(16,15,19,20)         60.2866         estimate D2E/DX2                !
 ! D33   D(16,15,19,24)       -119.1538         estimate D2E/DX2                !
 ! D34   D(17,15,19,20)        -59.5703         estimate D2E/DX2                !
 ! D35   D(17,15,19,24)        120.9893         estimate D2E/DX2                !
 ! D36   D(18,15,19,20)       -179.6048         estimate D2E/DX2                !
 ! D37   D(18,15,19,24)          0.9548         estimate D2E/DX2                !
 ! D38   D(15,19,20,21)        -52.5885         estimate D2E/DX2                !
 ! D39   D(15,19,20,22)       -172.1147         estimate D2E/DX2                !
 ! D40   D(15,19,20,23)         66.7605         estimate D2E/DX2                !
 ! D41   D(24,19,20,21)        126.8233         estimate D2E/DX2                !
 ! D42   D(24,19,20,22)          7.2971         estimate D2E/DX2                !
 ! D43   D(24,19,20,23)       -113.8277         estimate D2E/DX2                !
 ! D44   D(15,19,24,25)          0.5157         estimate D2E/DX2                !
 ! D45   D(15,19,24,26)       -178.3858         estimate D2E/DX2                !
 ! D46   D(20,19,24,25)       -178.8612         estimate D2E/DX2                !
 ! D47   D(20,19,24,26)          2.2373         estimate D2E/DX2                !
 ! D48   D(19,24,26,1)        -103.6639         estimate D2E/DX2                !
 ! D49   D(19,24,26,27)         20.4252         estimate D2E/DX2                !
 ! D50   D(19,24,26,28)        135.7878         estimate D2E/DX2                !
 ! D51   D(25,24,26,1)          77.3925         estimate D2E/DX2                !
 ! D52   D(25,24,26,27)       -158.5184         estimate D2E/DX2                !
 ! D53   D(25,24,26,28)        -43.1558         estimate D2E/DX2                !
 --------------------------------------------------------------------------------
 Trust Radius=3.00D-01 FncErr=1.00D-07 GrdErr=1.00D-07 EigMax=2.50D+02 EigMin=1.00D-04
 Number of steps in this run=    138 maximum allowed number of steps=    168.
 GradGradGradGradGradGradGradGradGradGradGradGradGradGradGradGradGradGrad

 Leave Link  103 at Fri Sep 17 14:54:04 2021, MaxMem=   524288000 cpu:               0.1 elap:               0.3
 (Enter /opt/gaussian/g16_legacy/l202.exe)
                          Input orientation:                          
 ---------------------------------------------------------------------
 Center     Atomic      Atomic             Coordinates (Angstroms)
 Number     Number       Type             X           Y           Z
 ---------------------------------------------------------------------
      1          6           0        0.766300    0.604900   -0.241800
      2          1           0        0.333100    1.098600    0.638500
      3          1           0        0.811400    1.387200   -1.008900
      4          6           0        2.157300    0.114800    0.104000
      5          6           0        2.316700   -0.411000    1.507700
      6          1           0        2.070400    0.369100    2.235500
      7          1           0        3.340100   -0.743100    1.712500
      8          1           0        1.653100   -1.265300    1.674600
      9          6           0        3.209500    0.150500   -0.737500
     10          1           0        4.174900   -0.206600   -0.379900
     11          6           0        3.223800    0.614300   -2.159600
     12          1           0        3.673400   -0.159300   -2.790700
     13          1           0        3.829900    1.520900   -2.248700
     14          1           0        2.229100    0.822400   -2.559800
     15          6           0       -3.953500    0.418700   -0.881100
     16          1           0       -4.342200    1.197200   -0.216500
     17          1           0       -4.696200   -0.382700   -0.951100
     18          1           0       -3.843600    0.857600   -1.878400
     19          6           0       -2.652800   -0.122400   -0.347200
     20          6           0       -2.755500   -0.744600    1.018000
     21          1           0       -3.231700   -0.045900    1.714500
     22          1           0       -1.786900   -1.008100    1.448800
     23          1           0       -3.363900   -1.653600    0.972500
     24          6           0       -1.519100   -0.020700   -1.068300
     25          1           0       -1.564600    0.469100   -2.041200
     26          6           0       -0.150100   -0.531700   -0.706100
     27          1           0       -0.204700   -1.317800    0.053500
     28          1           0        0.275800   -1.012500   -1.596400
 ---------------------------------------------------------------------
                    Distance matrix (angstroms):
                    1          2          3          4          5
     1  C    0.000000
     2  H    1.098331   0.000000
     3  H    1.096572   1.739537   0.000000
     4  C    1.514812   2.140387   2.160786   0.000000
     5  C    2.548832   2.639900   3.439873   1.507398   0.000000
     6  H    2.809501   2.469978   3.625981   2.148374   1.094949
     7  H    3.501548   3.686107   4.282350   2.173081   1.095254
     8  H    2.820754   2.898953   3.865926   2.150739   1.094554
     9  C    2.534053   3.326552   2.711820   1.347784   2.480584
    10  H    3.506588   4.183314   3.774781   2.099564   2.656637
    11  C    3.117267   4.052167   2.782294   2.551628   3.914481
    12  H    3.941081   4.949680   3.709113   3.279173   4.514447
    13  H    3.775228   4.554324   3.265934   3.210904   4.486931
    14  H    2.749584   3.728301   2.175813   2.757115   4.251295
    15  C    4.766538   4.598520   4.864010   6.197149   6.760930
    16  H    5.142784   4.753859   5.217623   6.596803   7.064002
    17  H    5.596192   5.478589   5.785287   6.952065   7.431505
    18  H    4.898316   4.882386   4.765032   6.363369   7.143131
    19  C    3.497187   3.373136   3.836329   4.837035   5.312238
    20  C    3.976345   3.616747   4.623383   5.070460   5.106692
    21  H    4.498295   3.895569   5.081077   5.626798   5.564244
    22  H    3.461030   3.096639   4.304523   4.315797   4.147232
    23  H    4.861471   4.621036   5.532227   5.862182   5.839496
    24  C    2.509488   2.756201   2.723406   3.861161   4.636968
    25  H    2.947775   3.343401   2.748441   4.310447   5.332331
    26  C    1.532065   2.167789   2.167567   2.529490   3.316712
    27  H    2.174125   2.543707   3.078665   2.762958   3.048679
    28  H    2.165990   3.074867   2.527960   2.775285   3.763311
                    6          7          8          9         10
     6  H    0.000000
     7  H    1.767104   0.000000
     8  H    1.777642   1.766380   0.000000
     9  C    3.191248   2.611145   3.200796   0.000000
    10  H    3.405975   2.315785   3.420715   1.089677   0.000000
    11  C    4.550534   4.104780   4.549844   1.495889   2.178486
    12  H    5.302028   4.553100   5.024316   2.127630   2.462863
    13  H    4.952831   4.588759   5.281444   2.132280   2.568208
    14  H    4.819291   4.683765   4.756092   2.175640   3.097893
    15  C    6.782553   7.827716   6.387599   7.169458   8.167808
    16  H    6.915164   8.154970   6.751577   7.641675   8.633559
    17  H    7.517080   8.473888   6.927257   7.926539   8.891215
    18  H    7.220679   8.189160   6.880714   7.179684   8.226443
    19  C    5.405602   6.367298   4.892307   5.881613   6.828297
    20  C    5.100191   6.135036   4.487539   6.282055   7.090417
    21  H    5.343775   6.608680   5.034858   6.894921   7.698705
    22  H    4.170652   5.140612   3.456984   5.575507   6.287257
    23  H    5.934484   6.805896   5.080749   7.027693   7.794633
    24  C    4.894032   5.645045   4.374401   4.743247   5.738474
    25  H    5.613679   6.294106   5.212380   4.959150   6.013181
    26  C    3.794084   4.251566   3.075294   3.428308   4.349451
    27  H    3.575309   3.955777   2.466200   3.799783   4.539108
    28  H    4.451164   4.517890   3.558132   3.270608   4.163211
                   11         12         13         14         15
    11  C    0.000000
    12  H    1.094936   0.000000
    13  H    1.094175   1.772379   0.000000
    14  H    1.092197   1.761548   1.774048   0.000000
    15  C    7.292905   7.883544   7.979128   6.419155   0.000000
    16  H    7.833247   8.527394   8.427208   6.986667   1.094917
    17  H    8.073468   8.572295   8.831865   7.211100   1.094872
    18  H    7.077175   7.640135   7.711011   6.110911   1.095134
    19  C    6.193702   6.781804   6.952808   5.442536   1.506539
    20  C    6.906213   7.495300   7.692289   6.332644   2.528844
    21  H    7.557645   8.245611   8.247909   6.988843   2.733859
    22  H    6.384344   6.964819   7.184413   5.962203   3.486882
    23  H    7.638797   8.119002   8.497314   7.063241   2.842163
    24  C    4.908081   5.472470   5.690490   4.121213   2.480810
    25  H    4.792064   5.328535   5.499997   3.845247   2.656166
    26  C    3.848270   4.370743   4.736368   3.306113   3.924250
    27  H    4.515023   4.946843   5.443927   4.163313   4.235848
    28  H    3.413851   3.701079   4.413076   2.847873   4.521832
                   16         17         18         19         20
    16  H    0.000000
    17  H    1.777931   0.000000
    18  H    1.768005   1.767811   0.000000
    19  C    2.147673   2.146610   2.173241   0.000000
    20  C    2.795030   2.788305   3.484270   1.503812   0.000000
    21  H    2.550935   3.060003   3.754952   2.142798   1.095473
    22  H    3.763792   3.822914   4.333718   2.181711   1.092340
    23  H    3.240039   2.662789   3.829343   2.142859   1.094761
    24  C    3.190413   3.199804   2.613613   1.347443   2.530882
    25  H    3.402164   3.423565   2.317602   2.098496   3.500002
    26  C    4.560976   4.555135   4.116599   2.561219   3.131446
    27  H    4.849436   4.696510   4.658991   2.753677   2.786647
    28  H    5.302153   5.053102   4.532798   3.305976   4.011937
                   21         22         23         24         25
    21  H    0.000000
    22  H    1.756096   0.000000
    23  H    1.775596   1.769311   0.000000
    24  C    3.267661   2.717070   3.199143   0.000000
    25  H    4.141223   3.796266   4.101917   1.090187   0.000000
    26  C    3.948616   2.747665   3.795375   1.505480   2.187442
    27  H    3.679590   2.132166   3.307245   2.160683   3.070848
    28  H    4.919241   3.678042   4.500852   2.117598   2.404175
                   26         27         28
    26  C    0.000000
    27  H    1.094498   0.000000
    28  H    1.097813   1.745353   0.000000
 Stoichiometry    C10H18
 Framework group  C1[X(C10H18)]
 Deg. of freedom    78
 Full point group                 C1      NOp   1
 Largest Abelian subgroup         C1      NOp   1
 Largest concise Abelian subgroup C1      NOp   1
                         Standard orientation:                         
 ---------------------------------------------------------------------
 Center     Atomic      Atomic             Coordinates (Angstroms)
 Number     Number       Type             X           Y           Z
 ---------------------------------------------------------------------
      1          6           0       -0.745849   -0.045445    0.580332
      2          1           0       -0.286588    0.606541    1.335530
      3          1           0       -0.871524   -1.012065    1.082647
      4          6           0       -2.090191    0.530352    0.185542
      5          6           0       -2.144024    2.035362    0.120017
      6          1           0       -1.893341    2.466941    1.094599
      7          1           0       -3.137278    2.403121   -0.158878
      8          1           0       -1.432558    2.412375   -0.621418
      9          6           0       -3.189393   -0.206037   -0.071377
     10          1           0       -4.114876    0.310362   -0.324772
     11          6           0       -3.306924   -1.697297   -0.075129
     12          1           0       -3.755113   -2.025143   -1.018807
     13          1           0       -3.959047   -2.020700    0.741795
     14          1           0       -2.347664   -2.209972    0.024254
     15          6           0        3.933094   -0.920060    0.330463
     16          1           0        4.322239   -0.557756    1.287618
     17          1           0        4.707384   -0.789552   -0.432548
     18          1           0        3.745736   -1.994158    0.433080
     19          6           0        2.691977   -0.156327   -0.051635
     20          6           0        2.901845    1.323923   -0.213701
     21          1           0        3.383826    1.735149    0.679970
     22          1           0        1.972968    1.880972   -0.355447
     23          1           0        3.548662    1.520266   -1.074850
     24          6           0        1.515297   -0.793349   -0.210484
     25          1           0        1.481919   -1.870805   -0.047750
     26          6           0        0.194816   -0.197046   -0.619414
     27          1           0        0.329714    0.762982   -1.127424
     28          1           0       -0.258343   -0.863015   -1.365287
 ---------------------------------------------------------------------
 Rotational constants (GHZ):           2.4778885           0.5324339           0.4581624
 Leave Link  202 at Fri Sep 17 14:54:04 2021, MaxMem=   524288000 cpu:               0.0 elap:               0.2
 (Enter /opt/gaussian/g16_legacy/l301.exe)
 Standard basis: 6-31G(d,p) (6D, 7F)
 Ernie: Thresh=  0.10000D-02 Tol=  0.10000D-05 Strict=F.
 There are   240 symmetry adapted cartesian basis functions of A   symmetry.
 There are   240 symmetry adapted basis functions of A   symmetry.
   240 basis functions,   406 primitive gaussians,   240 cartesian basis functions
    39 alpha electrons       39 beta electrons
       nuclear repulsion energy       513.2776287819 Hartrees.
 IExCor=    0 DFT=F Ex=HF Corr=None ExCW=0 ScaHFX=  1.000000
 ScaDFX=  1.000000  1.000000  1.000000  1.000000 ScalE2=  1.000000  1.000000
 IRadAn=      5 IRanWt=     -1 IRanGd=            0 ICorTp=0 IEmpDi=  4
 NAtoms=   28 NActive=   28 NUniq=   28 SFac= 1.00D+00 NAtFMM=   60 NAOKFM=F Big=F
 Integral buffers will be    131072 words long.
 Raffenetti 1 integral format.
 Two-electron integral symmetry is turned on.
 Leave Link  301 at Fri Sep 17 14:54:04 2021, MaxMem=   524288000 cpu:               0.1 elap:               0.3
 (Enter /opt/gaussian/g16_legacy/l302.exe)
 NPDir=0 NMtPBC=     1 NCelOv=     1 NCel=       1 NClECP=     1 NCelD=      1
         NCelK=      1 NCelE2=     1 NClLst=     1 CellRange=     0.0.
 One-electron integrals computed using PRISM.
 One-electron integral symmetry used in STVInt
 NBasis=   240 RedAO= T EigKep=  2.09D-03  NBF=   240
 NBsUse=   240 1.00D-06 EigRej= -1.00D+00 NBFU=   240
 Leave Link  302 at Fri Sep 17 14:54:05 2021, MaxMem=   524288000 cpu:               0.3 elap:               0.6
 (Enter /opt/gaussian/g16_legacy/l303.exe)
 DipDrv:  MaxL=1.
 Leave Link  303 at Fri Sep 17 14:54:05 2021, MaxMem=   524288000 cpu:               0.1 elap:               0.1
 (Enter /opt/gaussian/g16_legacy/l401.exe)
 ExpMin= 1.61D-01 ExpMax= 3.05D+03 ExpMxC= 4.57D+02 IAcc=3 IRadAn=         5 AccDes= 0.00D+00
 Harris functional with IExCor=  205 and IRadAn=       5 diagonalized for initial guess.
 HarFok:  IExCor=  205 AccDes= 0.00D+00 IRadAn=         5 IDoV= 1 UseB2=F ITyADJ=14
 ICtDFT=  3500011 ScaDFX=  1.000000  1.000000  1.000000  1.000000
 FoFCou: FMM=F IPFlag=           0 FMFlag=      100000 FMFlg1=           0
         NFxFlg=           0 DoJE=T BraDBF=F KetDBF=T FulRan=T
         wScrn=  0.000000 ICntrl=       500 IOpCl=  0 I1Cent=   200000004 NGrid=           0
         NMat0=    1 NMatS0=      1 NMatT0=    0 NMatD0=    1 NMtDS0=    0 NMtDT0=    0
 Petite list used in FoFCou.
 Harris En= -390.110056069660    
 JPrj=0 DoOrth=F DoCkMO=F.
 Leave Link  401 at Fri Sep 17 14:54:17 2021, MaxMem=   524288000 cpu:              11.7 elap:              11.9
 (Enter /opt/gaussian/g16_legacy/l502.exe)
 Keep R1 ints in memory in canonical form, NReq=425198025.
 FoFCou: FMM=F IPFlag=           0 FMFlag=           0 FMFlg1=           0
         NFxFlg=           0 DoJE=F BraDBF=F KetDBF=F FulRan=T
         wScrn=  0.000000 ICntrl=       600 IOpCl=  0 I1Cent=           0 NGrid=           0
         NMat0=    1 NMatS0=  28920 NMatT0=    0 NMatD0=    1 NMtDS0=    0 NMtDT0=    0
 Symmetry not used in FoFCou.
 Two-electron integral symmetry not used.
 Closed shell SCF:
 Using DIIS extrapolation, IDIIS=  1040.
 NGot=   524288000 LenX=   105970886 LenY=   105912845
 Requested convergence on RMS density matrix=1.00D-08 within 128 cycles.
 Requested convergence on MAX density matrix=1.00D-06.
 Requested convergence on             energy=1.00D-06.
 No special actions if energy rises.

 Cycle   1  Pass 1  IDiag  1:
 E= -388.532767283229    
 DIIS: error= 5.01D-02 at cycle   1 NSaved=   1.
 NSaved= 1 IEnMin= 1 EnMin= -388.532767283229     IErMin= 1 ErrMin= 5.01D-02
 ErrMax= 5.01D-02  0.00D+00 EMaxC= 1.00D-01 BMatC= 8.07D-01 BMatP= 8.07D-01
 IDIUse=3 WtCom= 4.99D-01 WtEn= 5.01D-01
 Coeff-Com:  0.100D+01
 Coeff-En:   0.100D+01
 Coeff:      0.100D+01
 Gap=     0.508 Goal=   None    Shift=    0.000
 GapD=    0.508 DampG=2.000 DampE=0.500 DampFc=1.0000 IDamp=-1.
 RMSDP=3.99D-03 MaxDP=1.15D-01              OVMax= 1.39D-01

 Cycle   2  Pass 1  IDiag  1:
 E= -389.074223850802     Delta-E=       -0.541456567572 Rises=F Damp=F
 DIIS: error= 1.46D-02 at cycle   2 NSaved=   2.
 NSaved= 2 IEnMin= 2 EnMin= -389.074223850802     IErMin= 2 ErrMin= 1.46D-02
 ErrMax= 1.46D-02  0.00D+00 EMaxC= 1.00D-01 BMatC= 8.64D-02 BMatP= 8.07D-01
 IDIUse=3 WtCom= 8.54D-01 WtEn= 1.46D-01
 Coeff-Com:  0.183D+00 0.817D+00
 Coeff-En:   0.000D+00 0.100D+01
 Coeff:      0.156D+00 0.844D+00
 Gap=     0.552 Goal=   None    Shift=    0.000
 RMSDP=1.62D-03 MaxDP=3.04D-02 DE=-5.41D-01 OVMax= 4.55D-02

 Cycle   3  Pass 1  IDiag  1:
 E= -389.151648630163     Delta-E=       -0.077424779361 Rises=F Damp=F
 DIIS: error= 2.67D-03 at cycle   3 NSaved=   3.
 NSaved= 3 IEnMin= 3 EnMin= -389.151648630163     IErMin= 3 ErrMin= 2.67D-03
 ErrMax= 2.67D-03  0.00D+00 EMaxC= 1.00D-01 BMatC= 3.01D-03 BMatP= 8.64D-02
 IDIUse=3 WtCom= 9.73D-01 WtEn= 2.67D-02
 Coeff-Com: -0.245D-01 0.102D+00 0.922D+00
 Coeff-En:   0.000D+00 0.000D+00 0.100D+01
 Coeff:     -0.239D-01 0.997D-01 0.924D+00
 Gap=     0.499 Goal=   None    Shift=    0.000
 RMSDP=2.54D-04 MaxDP=6.75D-03 DE=-7.74D-02 OVMax= 9.70D-03

 Cycle   4  Pass 1  IDiag  1:
 E= -389.155141253266     Delta-E=       -0.003492623104 Rises=F Damp=F
 DIIS: error= 4.95D-04 at cycle   4 NSaved=   4.
 NSaved= 4 IEnMin= 4 EnMin= -389.155141253266     IErMin= 4 ErrMin= 4.95D-04
 ErrMax= 4.95D-04  0.00D+00 EMaxC= 1.00D-01 BMatC= 9.59D-05 BMatP= 3.01D-03
 IDIUse=3 WtCom= 9.95D-01 WtEn= 4.95D-03
 Coeff-Com: -0.443D-02-0.832D-03 0.103D+00 0.903D+00
 Coeff-En:   0.000D+00 0.000D+00 0.000D+00 0.100D+01
 Coeff:     -0.441D-02-0.828D-03 0.102D+00 0.903D+00
 Gap=     0.500 Goal=   None    Shift=    0.000
 RMSDP=7.33D-05 MaxDP=1.75D-03 DE=-3.49D-03 OVMax= 3.51D-03

 Cycle   5  Pass 1  IDiag  1:
 E= -389.155266523352     Delta-E=       -0.000125270086 Rises=F Damp=F
 DIIS: error= 1.73D-04 at cycle   5 NSaved=   5.
 NSaved= 5 IEnMin= 5 EnMin= -389.155266523352     IErMin= 5 ErrMin= 1.73D-04
 ErrMax= 1.73D-04  0.00D+00 EMaxC= 1.00D-01 BMatC= 1.79D-05 BMatP= 9.59D-05
 IDIUse=3 WtCom= 9.98D-01 WtEn= 1.73D-03
 Coeff-Com:  0.248D-02-0.153D-01-0.106D+00 0.196D+00 0.923D+00
 Coeff-En:   0.000D+00 0.000D+00 0.000D+00 0.000D+00 0.100D+01
 Coeff:      0.247D-02-0.153D-01-0.105D+00 0.196D+00 0.923D+00
 Gap=     0.500 Goal=   None    Shift=    0.000
 RMSDP=3.09D-05 MaxDP=7.46D-04 DE=-1.25D-04 OVMax= 1.02D-03

 Cycle   6  Pass 1  IDiag  1:
 E= -389.155290150217     Delta-E=       -0.000023626865 Rises=F Damp=F
 DIIS: error= 3.74D-05 at cycle   6 NSaved=   6.
 NSaved= 6 IEnMin= 6 EnMin= -389.155290150217     IErMin= 6 ErrMin= 3.74D-05
 ErrMax= 3.74D-05  0.00D+00 EMaxC= 1.00D-01 BMatC= 5.51D-07 BMatP= 1.79D-05
 IDIUse=1 WtCom= 1.00D+00 WtEn= 0.00D+00
 Coeff-Com:  0.725D-03-0.330D-02-0.263D-01-0.272D-02 0.163D+00 0.868D+00
 Coeff:      0.725D-03-0.330D-02-0.263D-01-0.272D-02 0.163D+00 0.868D+00
 Gap=     0.500 Goal=   None    Shift=    0.000
 RMSDP=5.42D-06 MaxDP=1.67D-04 DE=-2.36D-05 OVMax= 3.13D-04

 Cycle   7  Pass 1  IDiag  1:
 E= -389.155291004126     Delta-E=       -0.000000853910 Rises=F Damp=F
 DIIS: error= 9.13D-06 at cycle   7 NSaved=   7.
 NSaved= 7 IEnMin= 7 EnMin= -389.155291004126     IErMin= 7 ErrMin= 9.13D-06
 ErrMax= 9.13D-06  0.00D+00 EMaxC= 1.00D-01 BMatC= 4.92D-08 BMatP= 5.51D-07
 IDIUse=1 WtCom= 1.00D+00 WtEn= 0.00D+00
 Coeff-Com: -0.555D-04 0.478D-03 0.326D-02-0.106D-01-0.462D-01 0.126D+00
 Coeff-Com:  0.927D+00
 Coeff:     -0.555D-04 0.478D-03 0.326D-02-0.106D-01-0.462D-01 0.126D+00
 Coeff:      0.927D+00
 Gap=     0.500 Goal=   None    Shift=    0.000
 RMSDP=1.70D-06 MaxDP=4.71D-05 DE=-8.54D-07 OVMax= 8.68D-05

 Cycle   8  Pass 1  IDiag  1:
 E= -389.155291089354     Delta-E=       -0.000000085227 Rises=F Damp=F
 DIIS: error= 2.98D-06 at cycle   8 NSaved=   8.
 NSaved= 8 IEnMin= 8 EnMin= -389.155291089354     IErMin= 8 ErrMin= 2.98D-06
 ErrMax= 2.98D-06  0.00D+00 EMaxC= 1.00D-01 BMatC= 4.91D-09 BMatP= 4.92D-08
 IDIUse=1 WtCom= 1.00D+00 WtEn= 0.00D+00
 Coeff-Com: -0.553D-04 0.226D-03 0.195D-02 0.331D-02-0.143D-01-0.848D-01
 Coeff-Com: -0.129D+00 0.122D+01
 Coeff:     -0.553D-04 0.226D-03 0.195D-02 0.331D-02-0.143D-01-0.848D-01
 Coeff:     -0.129D+00 0.122D+01
 Gap=     0.500 Goal=   None    Shift=    0.000
 RMSDP=7.77D-07 MaxDP=2.58D-05 DE=-8.52D-08 OVMax= 5.60D-05

 Cycle   9  Pass 1  IDiag  1:
 E= -389.155291104661     Delta-E=       -0.000000015307 Rises=F Damp=F
 DIIS: error= 1.35D-06 at cycle   9 NSaved=   9.
 NSaved= 9 IEnMin= 9 EnMin= -389.155291104661     IErMin= 9 ErrMin= 1.35D-06
 ErrMax= 1.35D-06  0.00D+00 EMaxC= 1.00D-01 BMatC= 6.53D-10 BMatP= 4.91D-09
 IDIUse=1 WtCom= 1.00D+00 WtEn= 0.00D+00
 Coeff-Com:  0.122D-04-0.777D-04-0.581D-03 0.123D-02 0.420D-02 0.524D-02
 Coeff-Com: -0.723D-01-0.196D+00 0.126D+01
 Coeff:      0.122D-04-0.777D-04-0.581D-03 0.123D-02 0.420D-02 0.524D-02
 Coeff:     -0.723D-01-0.196D+00 0.126D+01
 Gap=     0.500 Goal=   None    Shift=    0.000
 RMSDP=2.99D-07 MaxDP=1.28D-05 DE=-1.53D-08 OVMax= 2.62D-05

 Cycle  10  Pass 1  IDiag  1:
 E= -389.155291106867     Delta-E=       -0.000000002206 Rises=F Damp=F
 DIIS: error= 4.11D-07 at cycle  10 NSaved=  10.
 NSaved=10 IEnMin=10 EnMin= -389.155291106867     IErMin=10 ErrMin= 4.11D-07
 ErrMax= 4.11D-07  0.00D+00 EMaxC= 1.00D-01 BMatC= 8.50D-11 BMatP= 6.53D-10
 IDIUse=1 WtCom= 1.00D+00 WtEn= 0.00D+00
 Coeff-Com:  0.803D-05-0.368D-04-0.304D-03-0.200D-03 0.163D-02 0.134D-01
 Coeff-Com:  0.123D-01-0.192D+00 0.979D-01 0.107D+01
 Coeff:      0.803D-05-0.368D-04-0.304D-03-0.200D-03 0.163D-02 0.134D-01
 Coeff:      0.123D-01-0.192D+00 0.979D-01 0.107D+01
 Gap=     0.500 Goal=   None    Shift=    0.000
 RMSDP=1.08D-07 MaxDP=3.32D-06 DE=-2.21D-09 OVMax= 8.54D-06

 Cycle  11  Pass 1  IDiag  1:
 E= -389.155291107082     Delta-E=       -0.000000000216 Rises=F Damp=F
 DIIS: error= 1.55D-07 at cycle  11 NSaved=  11.
 NSaved=11 IEnMin=11 EnMin= -389.155291107082     IErMin=11 ErrMin= 1.55D-07
 ErrMax= 1.55D-07  0.00D+00 EMaxC= 1.00D-01 BMatC= 5.89D-12 BMatP= 8.50D-11
 IDIUse=1 WtCom= 1.00D+00 WtEn= 0.00D+00
 Coeff-Com: -0.510D-06 0.460D-05 0.338D-04-0.107D-03-0.456D-03 0.982D-03
 Coeff-Com:  0.873D-02 0.497D-02-0.107D+00 0.924D-01 0.100D+01
 Coeff:     -0.510D-06 0.460D-05 0.338D-04-0.107D-03-0.456D-03 0.982D-03
 Coeff:      0.873D-02 0.497D-02-0.107D+00 0.924D-01 0.100D+01
 Gap=     0.500 Goal=   None    Shift=    0.000
 RMSDP=2.30D-08 MaxDP=1.01D-06 DE=-2.16D-10 OVMax= 2.03D-06

 Cycle  12  Pass 1  IDiag  1:
 E= -389.155291107113     Delta-E=       -0.000000000031 Rises=F Damp=F
 DIIS: error= 4.41D-08 at cycle  12 NSaved=  12.
 NSaved=12 IEnMin=12 EnMin= -389.155291107113     IErMin=12 ErrMin= 4.41D-08
 ErrMax= 4.41D-08  0.00D+00 EMaxC= 1.00D-01 BMatC= 9.45D-13 BMatP= 5.89D-12
 IDIUse=1 WtCom= 1.00D+00 WtEn= 0.00D+00
 Coeff-Com: -0.946D-06 0.495D-05 0.398D-04 0.174D-05-0.291D-03-0.124D-02
 Coeff-Com:  0.338D-03 0.206D-01-0.365D-01-0.106D+00 0.192D+00 0.931D+00
 Coeff:     -0.946D-06 0.495D-05 0.398D-04 0.174D-05-0.291D-03-0.124D-02
 Coeff:      0.338D-03 0.206D-01-0.365D-01-0.106D+00 0.192D+00 0.931D+00
 Gap=     0.500 Goal=   None    Shift=    0.000
 RMSDP=9.74D-09 MaxDP=2.60D-07 DE=-3.09D-11 OVMax= 6.37D-07

 SCF Done:  E(RHF) =  -389.155291107     A.U. after   12 cycles
            NFock= 12  Conv=0.97D-08     -V/T= 2.0014
 KE= 3.886243790585D+02 PE=-1.931189446622D+03 EE= 6.401321476742D+02
 Leave Link  502 at Fri Sep 17 14:54:47 2021, MaxMem=   524288000 cpu:              29.6 elap:              29.7
 (Enter /opt/gaussian/g16_legacy/l801.exe)
 ExpMin= 1.61D-01 ExpMax= 3.05D+03 ExpMxC= 4.57D+02 IAcc=3 IRadAn=         5 AccDes= 0.00D+00
 HarFok:  IExCor=  205 AccDes= 0.00D+00 IRadAn=         5 IDoV=-2 UseB2=F ITyADJ=14
 ICtDFT= 12500011 ScaDFX=  1.000000  1.000000  1.000000  1.000000
 Largest valence mixing into a core orbital is  1.97D-04
 Largest core mixing into a valence orbital is  3.52D-05
 Range of M.O.s used for correlation:    11   240
 NBasis=   240 NAE=    39 NBE=    39 NFC=    10 NFV=     0
 NROrb=    230 NOA=    29 NOB=    29 NVA=   201 NVB=   201
 Leave Link  801 at Fri Sep 17 14:54:49 2021, MaxMem=   524288000 cpu:               1.7 elap:               1.7
 (Enter /opt/gaussian/g16_legacy/l906.exe)
 Frozen-core derivative calculation, NFC=  10 NFV=   0.
 FulOut=F Deriv=T AODrv=T NAtomX=    28
   MMem=          89  MDisk=          29 MDiskD=          29
  W3Min=     2246400 MinDsk=     2795480 NBas6D=         240
 NBas2D=       29244    NTT=       28920    LW2=     2040000
    MDV=   523629461 MDiskM=       30186 NBas2p=       24099
 Fully direct method using O(ONN) memory.
 IMap=   1   2   3   4   5   6   7   8   9  10  11  12  13  14  15  16  17  18  19  20
 IMap=  21  22  23  24  25  26  27  28  29  30  31  32  33  34  35  36  37  38  39
 JobTyp=1 Pass  1:  I=  11 to  39 NPSUse=  1 ParTrn=F ParDer=F DoDerP=T.
 Spin components of T(2) and E(2):
     alpha-alpha T2 =       0.5711603383D-01 E2=     -0.1637352495D+00
     alpha-beta  T2 =       0.3617476193D+00 E2=     -0.1089195773D+01
     beta-beta   T2 =       0.5711603383D-01 E2=     -0.1637352495D+00
 The integrals were generated   1 times.
 ANorm=    0.1214899044D+01
 E2 =    -0.1416666272D+01 EUMP2 =    -0.39057195737888D+03
 Leave Link  906 at Fri Sep 17 14:58:47 2021, MaxMem=   524288000 cpu:             237.9 elap:             237.9
 (Enter /opt/gaussian/g16_legacy/l1002.exe)
 Minotr:  Closed shell wavefunction.
          Computing MP2/KS-MP2 derivatives.
          Using Z-Vector for PSCF gradient.
          Skipping F1 and S1 gradient terms here.
          IDoAtm=1111111111111111111111111111
          Frozen-core window.
          Direct CPHF calculation.
          Differentiating once with respect to electric field.
                with respect to dipole field.
          Differentiating once with respect to nuclear coordinates.
          Requested convergence is 1.0D-10 RMS, and 1.0D-09 maximum.
          NewPWx=F KeepS1=T KeepF1=T KeepIn=T MapXYZ=F SortEE=F KeepMc=T.
 Keep R1 ints in memory in canonical form, NReq=425201067.
 FoFCou: FMM=F IPFlag=           0 FMFlag=           0 FMFlg1=           0
         NFxFlg=           0 DoJE=F BraDBF=F KetDBF=F FulRan=T
         wScrn=  0.000000 ICntrl=       600 IOpCl=  0 I1Cent=           0 NGrid=           0
         NMat0=    1 NMatS0=  28920 NMatT0=    0 NMatD0=    1 NMtDS0=    0 NMtDT0=    0
 Symmetry not used in FoFCou.
 Two-electron integral symmetry not used.
          MDV=     524288000 using IRadAn=       5.
          Solving linear equations separately, MaxMat=       0.
          There are     1 degrees of freedom in the 1st order CPHF.  IDoFFX=0 NUNeed=     1.
 LinEq1:  Iter=  0 NonCon=     1 RMS=2.55D-03 Max=4.26D-02 NDo=     1
 AX will form     1 AO Fock derivatives at one time.
 LinEq1:  Iter=  1 NonCon=     1 RMS=6.89D-04 Max=1.12D-02 NDo=     1
 LinEq1:  Iter=  2 NonCon=     1 RMS=1.61D-04 Max=4.13D-03 NDo=     1
 LinEq1:  Iter=  3 NonCon=     1 RMS=4.42D-05 Max=5.12D-04 NDo=     1
 LinEq1:  Iter=  4 NonCon=     1 RMS=1.99D-05 Max=8.26D-04 NDo=     1
 LinEq1:  Iter=  5 NonCon=     1 RMS=4.81D-06 Max=8.80D-05 NDo=     1
 LinEq1:  Iter=  6 NonCon=     1 RMS=1.45D-06 Max=2.33D-05 NDo=     1
 LinEq1:  Iter=  7 NonCon=     1 RMS=4.00D-07 Max=4.13D-06 NDo=     1
 LinEq1:  Iter=  8 NonCon=     1 RMS=8.44D-08 Max=1.47D-06 NDo=     1
 LinEq1:  Iter=  9 NonCon=     1 RMS=2.22D-08 Max=5.48D-07 NDo=     1
 LinEq1:  Iter= 10 NonCon=     1 RMS=7.39D-09 Max=1.95D-07 NDo=     1
 LinEq1:  Iter= 11 NonCon=     1 RMS=2.35D-09 Max=7.28D-08 NDo=     1
 LinEq1:  Iter= 12 NonCon=     1 RMS=8.57D-10 Max=1.38D-08 NDo=     1
 LinEq1:  Iter= 13 NonCon=     1 RMS=2.39D-10 Max=3.44D-09 NDo=     1
 LinEq1:  Iter= 14 NonCon=     0 RMS=5.52D-11 Max=6.92D-10 NDo=     1
 Linear equations converged to 1.000D-10 1.000D-09 after    14 iterations.
 End of Minotr F.D. properties file   721 does not exist.
 End of Minotr F.D. properties file   722 does not exist.
 End of Minotr F.D. properties file   788 does not exist.
 Leave Link 1002 at Fri Sep 17 14:59:20 2021, MaxMem=   524288000 cpu:              32.9 elap:              33.0
 (Enter /opt/gaussian/g16_legacy/l601.exe)
 Copying SCF densities to generalized density rwf, IOpCl= 0 IROHF=0.

 **********************************************************************

            Population analysis using the SCF density.

 **********************************************************************

 Orbital symmetries:
       Occupied  (A) (A) (A) (A) (A) (A) (A) (A) (A) (A) (A) (A)
                 (A) (A) (A) (A) (A) (A) (A) (A) (A) (A) (A) (A)
                 (A) (A) (A) (A) (A) (A) (A) (A) (A) (A) (A) (A)
                 (A) (A) (A)
       Virtual   (A) (A) (A) (A) (A) (A) (A) (A) (A) (A) (A) (A)
                 (A) (A) (A) (A) (A) (A) (A) (A) (A) (A) (A) (A)
                 (A) (A) (A) (A) (A) (A) (A) (A) (A) (A) (A) (A)
                 (A) (A) (A) (A) (A) (A) (A) (A) (A) (A) (A) (A)
                 (A) (A) (A) (A) (A) (A) (A) (A) (A) (A) (A) (A)
                 (A) (A) (A) (A) (A) (A) (A) (A) (A) (A) (A) (A)
                 (A) (A) (A) (A) (A) (A) (A) (A) (A) (A) (A) (A)
                 (A) (A) (A) (A) (A) (A) (A) (A) (A) (A) (A) (A)
                 (A) (A) (A) (A) (A) (A) (A) (A) (A) (A) (A) (A)
                 (A) (A) (A) (A) (A) (A) (A) (A) (A) (A) (A) (A)
                 (A) (A) (A) (A) (A) (A) (A) (A) (A) (A) (A) (A)
                 (A) (A) (A) (A) (A) (A) (A) (A) (A) (A) (A) (A)
                 (A) (A) (A) (A) (A) (A) (A) (A) (A) (A) (A) (A)
                 (A) (A) (A) (A) (A) (A) (A) (A) (A) (A) (A) (A)
                 (A) (A) (A) (A) (A) (A) (A) (A) (A) (A) (A) (A)
                 (A) (A) (A) (A) (A) (A) (A) (A) (A) (A) (A) (A)
                 (A) (A) (A) (A) (A) (A) (A) (A) (A)
 The electronic state is 1-A.
 Alpha  occ. eigenvalues --  -11.23060 -11.22491 -11.21994 -11.21919 -11.21893
 Alpha  occ. eigenvalues --  -11.21649 -11.21538 -11.21501 -11.21457 -11.21436
 Alpha  occ. eigenvalues --   -1.10615  -1.08327  -1.01892  -0.98025  -0.93648
 Alpha  occ. eigenvalues --   -0.91774  -0.86737  -0.82690  -0.70609  -0.69413
 Alpha  occ. eigenvalues --   -0.64401  -0.61335  -0.60398  -0.59008  -0.58077
 Alpha  occ. eigenvalues --   -0.56878  -0.55468  -0.55041  -0.53553  -0.51978
 Alpha  occ. eigenvalues --   -0.51778  -0.51260  -0.50451  -0.49763  -0.47239
 Alpha  occ. eigenvalues --   -0.46642  -0.44234  -0.33253  -0.31611
 Alpha virt. eigenvalues --    0.18418   0.19606   0.22268   0.24508   0.24867
 Alpha virt. eigenvalues --    0.27279   0.28581   0.29021   0.30341   0.30570
 Alpha virt. eigenvalues --    0.31452   0.32294   0.32994   0.33604   0.33919
 Alpha virt. eigenvalues --    0.34861   0.36107   0.37175   0.38359   0.39994
 Alpha virt. eigenvalues --    0.40807   0.41938   0.42664   0.44322   0.45311
 Alpha virt. eigenvalues --    0.51885   0.54070   0.61042   0.62386   0.69420
 Alpha virt. eigenvalues --    0.71420   0.71711   0.74323   0.75992   0.76600
 Alpha virt. eigenvalues --    0.77890   0.78837   0.80149   0.80439   0.82526
 Alpha virt. eigenvalues --    0.82864   0.85809   0.89227   0.90311   0.92128
 Alpha virt. eigenvalues --    0.93069   0.94945   0.96558   0.97593   0.99409
 Alpha virt. eigenvalues --    0.99666   1.01112   1.02716   1.04774   1.06343
 Alpha virt. eigenvalues --    1.07245   1.08350   1.08463   1.10883   1.12200
 Alpha virt. eigenvalues --    1.13081   1.13493   1.14140   1.15107   1.15427
 Alpha virt. eigenvalues --    1.15972   1.16404   1.17989   1.18285   1.20090
 Alpha virt. eigenvalues --    1.20924   1.22025   1.22903   1.24888   1.26884
 Alpha virt. eigenvalues --    1.29777   1.39908   1.40850   1.44071   1.45167
 Alpha virt. eigenvalues --    1.46114   1.53924   1.55255   1.57487   1.59003
 Alpha virt. eigenvalues --    1.61318   1.62902   1.65440   1.68694   1.70721
 Alpha virt. eigenvalues --    1.74995   1.83305   1.90946   1.92634   1.95887
 Alpha virt. eigenvalues --    1.98117   2.01341   2.02514   2.04963   2.08419
 Alpha virt. eigenvalues --    2.09279   2.11238   2.11880   2.13549   2.13761
 Alpha virt. eigenvalues --    2.15744   2.17934   2.19180   2.23537   2.27675
 Alpha virt. eigenvalues --    2.27927   2.30153   2.32119   2.34935   2.35558
 Alpha virt. eigenvalues --    2.35637   2.35785   2.39411   2.39799   2.40227
 Alpha virt. eigenvalues --    2.41249   2.41851   2.42900   2.44990   2.45575
 Alpha virt. eigenvalues --    2.47186   2.49015   2.49667   2.49763   2.53204
 Alpha virt. eigenvalues --    2.56183   2.58402   2.60483   2.62611   2.64594
 Alpha virt. eigenvalues --    2.66043   2.67904   2.71568   2.72557   2.74074
 Alpha virt. eigenvalues --    2.76098   2.77694   2.81000   2.82552   2.84074
 Alpha virt. eigenvalues --    2.86959   2.90350   2.92351   2.93719   2.93883
 Alpha virt. eigenvalues --    2.97257   2.98949   3.00897   3.02347   3.04617
 Alpha virt. eigenvalues --    3.06570   3.07047   3.09532   3.11564   3.16233
 Alpha virt. eigenvalues --    3.17178   3.17508   3.19752   3.20504   3.20972
 Alpha virt. eigenvalues --    3.22292   3.25236   3.26470   3.27444   3.37022
 Alpha virt. eigenvalues --    3.39003   3.44381   3.45750   3.55488   3.57306
 Alpha virt. eigenvalues --    3.58488   3.60439   3.67986   3.73340   3.78352
 Alpha virt. eigenvalues --    3.78760   3.80287   3.81205   3.82235   3.82867
 Alpha virt. eigenvalues --    3.83541   3.85730   3.87954   3.89124   3.90864
 Alpha virt. eigenvalues --    3.96060   4.59174   4.62294   4.74495   4.82467
 Alpha virt. eigenvalues --    4.89197   4.92415   4.93233   5.07344   5.10307
 Alpha virt. eigenvalues --    5.16932
          Condensed to atoms (all electrons):
               1          2          3          4          5          6
     1  C    5.000789   0.412395   0.414387   0.339579  -0.058829  -0.003457
     2  H    0.412395   0.583785  -0.030334  -0.045109  -0.004631   0.002508
     3  H    0.414387  -0.030334   0.576741  -0.040664   0.003305  -0.000014
     4  C    0.339579  -0.045109  -0.040664   4.957289   0.350730  -0.043205
     5  C   -0.058829  -0.004631   0.003305   0.350730   4.895170   0.397608
     6  H   -0.003457   0.002508  -0.000014  -0.043205   0.397608   0.593333
     7  H    0.003653   0.000092  -0.000107  -0.041423   0.406582  -0.027585
     8  H   -0.000426  -0.000305  -0.000036  -0.046054   0.399656  -0.035161
     9  C   -0.043512   0.001832  -0.002305   0.696647  -0.045815  -0.000480
    10  H    0.003081  -0.000112   0.000055  -0.036445  -0.006437   0.000245
    11  C   -0.007012   0.000131  -0.002043  -0.050643   0.003399  -0.000113
    12  H    0.000233  -0.000010  -0.000035   0.000510  -0.000102  -0.000004
    13  H    0.000216   0.000029   0.000157  -0.001298  -0.000114   0.000021
    14  H   -0.002038   0.000010  -0.001242  -0.000450   0.000090  -0.000001
    15  C   -0.000105  -0.000032  -0.000001   0.000001  -0.000000   0.000000
    16  H    0.000021  -0.000005  -0.000001  -0.000000   0.000000  -0.000000
    17  H   -0.000004   0.000001   0.000000   0.000000  -0.000000  -0.000000
    18  H   -0.000002  -0.000002   0.000002   0.000000  -0.000000  -0.000000
    19  C   -0.002758   0.000934   0.000602  -0.000035   0.000007  -0.000001
    20  C    0.000487   0.000129  -0.000011  -0.000018  -0.000017  -0.000002
    21  H    0.000071  -0.000066  -0.000000  -0.000002   0.000000   0.000000
    22  H    0.000080   0.000148  -0.000011  -0.000063   0.000095   0.000005
    23  H   -0.000041   0.000012   0.000000   0.000001  -0.000000   0.000000
    24  C   -0.062586  -0.000485  -0.001370   0.006102  -0.000076   0.000000
    25  H   -0.000349   0.000185   0.001131  -0.000118  -0.000002   0.000000
    26  C    0.325374  -0.042898  -0.041393  -0.056885  -0.000803   0.000024
    27  H   -0.040035  -0.002359   0.004047  -0.002267  -0.000487   0.000076
    28  H   -0.045285   0.004395  -0.002682  -0.001367   0.000304   0.000006
               7          8          9         10         11         12
     1  C    0.003653  -0.000426  -0.043512   0.003081  -0.007012   0.000233
     2  H    0.000092  -0.000305   0.001832  -0.000112   0.000131  -0.000010
     3  H   -0.000107  -0.000036  -0.002305   0.000055  -0.002043  -0.000035
     4  C   -0.041423  -0.046054   0.696647  -0.036445  -0.050643   0.000510
     5  C    0.406582   0.399656  -0.045815  -0.006437   0.003399  -0.000102
     6  H   -0.027585  -0.035161  -0.000480   0.000245  -0.000113  -0.000004
     7  H    0.570248  -0.028120  -0.002764   0.002176   0.000140  -0.000008
     8  H   -0.028120   0.598067  -0.000962   0.000130  -0.000102   0.000015
     9  C   -0.002764  -0.000962   4.939983   0.404570   0.338334  -0.042715
    10  H    0.002176   0.000130   0.404570   0.559852  -0.043634  -0.002624
    11  C    0.000140  -0.000102   0.338334  -0.043634   4.903510   0.402914
    12  H   -0.000008   0.000015  -0.042715  -0.002624   0.402914   0.585845
    13  H   -0.000004  -0.000005  -0.044543  -0.000245   0.400269  -0.033316
    14  H    0.000004   0.000001  -0.041984   0.003343   0.408029  -0.029454
    15  C    0.000000  -0.000000  -0.000000   0.000000   0.000000  -0.000000
    16  H   -0.000000   0.000000   0.000000  -0.000000  -0.000000   0.000000
    17  H    0.000000   0.000000  -0.000000   0.000000  -0.000000  -0.000000
    18  H   -0.000000  -0.000000   0.000000   0.000000  -0.000000   0.000000
    19  C   -0.000000   0.000017  -0.000002   0.000000   0.000000   0.000000
    20  C    0.000000  -0.000029  -0.000000  -0.000000  -0.000000  -0.000000
    21  H   -0.000000  -0.000001   0.000000  -0.000000   0.000000   0.000000
    22  H   -0.000001   0.000222  -0.000001   0.000000  -0.000000   0.000000
    23  H    0.000000  -0.000000   0.000000   0.000000   0.000000  -0.000000
    24  C    0.000002  -0.000082  -0.000010   0.000002  -0.000022  -0.000002
    25  H    0.000000  -0.000000   0.000009  -0.000000  -0.000002  -0.000000
    26  C   -0.000094   0.000832  -0.003332  -0.000120   0.000493   0.000079
    27  H   -0.000024  -0.000581   0.000498   0.000002  -0.000024   0.000000
    28  H   -0.000006   0.000016   0.000945  -0.000032   0.000106  -0.000059
              13         14         15         16         17         18
     1  C    0.000216  -0.002038  -0.000105   0.000021  -0.000004  -0.000002
     2  H    0.000029   0.000010  -0.000032  -0.000005   0.000001  -0.000002
     3  H    0.000157  -0.001242  -0.000001  -0.000001   0.000000   0.000002
     4  C   -0.001298  -0.000450   0.000001  -0.000000   0.000000   0.000000
     5  C   -0.000114   0.000090  -0.000000   0.000000  -0.000000  -0.000000
     6  H    0.000021  -0.000001   0.000000  -0.000000  -0.000000  -0.000000
     7  H   -0.000004   0.000004   0.000000  -0.000000   0.000000  -0.000000
     8  H   -0.000005   0.000001  -0.000000   0.000000   0.000000  -0.000000
     9  C   -0.044543  -0.041984  -0.000000   0.000000  -0.000000   0.000000
    10  H   -0.000245   0.003343   0.000000  -0.000000   0.000000   0.000000
    11  C    0.400269   0.408029   0.000000  -0.000000  -0.000000  -0.000000
    12  H   -0.033316  -0.029454  -0.000000   0.000000  -0.000000   0.000000
    13  H    0.585302  -0.027461   0.000000  -0.000000   0.000000  -0.000000
    14  H   -0.027461   0.575179  -0.000000  -0.000000   0.000000   0.000000
    15  C    0.000000  -0.000000   4.903445   0.396994   0.399279   0.405372
    16  H   -0.000000  -0.000000   0.396994   0.594254  -0.034896  -0.027358
    17  H    0.000000   0.000000   0.399279  -0.034896   0.593079  -0.027569
    18  H   -0.000000   0.000000   0.405372  -0.027358  -0.027569   0.568077
    19  C   -0.000000   0.000001   0.351814  -0.044203  -0.045805  -0.040399
    20  C    0.000000   0.000000  -0.065371  -0.002145  -0.001091   0.003696
    21  H   -0.000000  -0.000000  -0.003425   0.002838  -0.000508   0.000012
    22  H   -0.000000   0.000000   0.003707  -0.000072  -0.000024  -0.000109
    23  H    0.000000   0.000000  -0.001680  -0.000367   0.002542  -0.000080
    24  C    0.000002   0.000034  -0.044524  -0.000623  -0.001111  -0.002346
    25  H   -0.000000   0.000035  -0.006705   0.000223   0.000153   0.002203
    26  C   -0.000045  -0.000174   0.003141  -0.000086  -0.000123   0.000141
    27  H   -0.000000  -0.000005   0.000062  -0.000003   0.000004   0.000006
    28  H    0.000018   0.000114  -0.000098  -0.000002   0.000012  -0.000011
              19         20         21         22         23         24
     1  C   -0.002758   0.000487   0.000071   0.000080  -0.000041  -0.062586
     2  H    0.000934   0.000129  -0.000066   0.000148   0.000012  -0.000485
     3  H    0.000602  -0.000011  -0.000000  -0.000011   0.000000  -0.001370
     4  C   -0.000035  -0.000018  -0.000002  -0.000063   0.000001   0.006102
     5  C    0.000007  -0.000017   0.000000   0.000095  -0.000000  -0.000076
     6  H   -0.000001  -0.000002   0.000000   0.000005   0.000000   0.000000
     7  H   -0.000000   0.000000  -0.000000  -0.000001   0.000000   0.000002
     8  H    0.000017  -0.000029  -0.000001   0.000222  -0.000000  -0.000082
     9  C   -0.000002  -0.000000   0.000000  -0.000001   0.000000  -0.000010
    10  H    0.000000  -0.000000  -0.000000   0.000000   0.000000   0.000002
    11  C    0.000000  -0.000000   0.000000  -0.000000   0.000000  -0.000022
    12  H    0.000000  -0.000000   0.000000   0.000000  -0.000000  -0.000002
    13  H   -0.000000   0.000000  -0.000000  -0.000000   0.000000   0.000002
    14  H    0.000001   0.000000  -0.000000   0.000000   0.000000   0.000034
    15  C    0.351814  -0.065371  -0.003425   0.003707  -0.001680  -0.044524
    16  H   -0.044203  -0.002145   0.002838  -0.000072  -0.000367  -0.000623
    17  H   -0.045805  -0.001091  -0.000508  -0.000024   0.002542  -0.001111
    18  H   -0.040399   0.003696   0.000012  -0.000109  -0.000080  -0.002346
    19  C    4.920219   0.348923  -0.043839  -0.036966  -0.043920   0.695482
    20  C    0.348923   4.906841   0.402437   0.405951   0.398572  -0.043604
    21  H   -0.043839   0.402437   0.585573  -0.029653  -0.033089   0.000408
    22  H   -0.036966   0.405951  -0.029653   0.570717  -0.026874  -0.002889
    23  H   -0.043920   0.398572  -0.033089  -0.026874   0.583067  -0.000742
    24  C    0.695482  -0.043604   0.000408  -0.002889  -0.000742   4.962281
    25  H   -0.035971   0.003359  -0.000112   0.000053  -0.000124   0.403007
    26  C   -0.048870  -0.007184   0.000276  -0.002348   0.000191   0.341679
    27  H    0.000556  -0.001878  -0.000035  -0.001472   0.000040  -0.043138
    28  H    0.000972   0.000145  -0.000012   0.000041   0.000033  -0.044013
              25         26         27         28
     1  C   -0.000349   0.325374  -0.040035  -0.045285
     2  H    0.000185  -0.042898  -0.002359   0.004395
     3  H    0.001131  -0.041393   0.004047  -0.002682
     4  C   -0.000118  -0.056885  -0.002267  -0.001367
     5  C   -0.000002  -0.000803  -0.000487   0.000304
     6  H    0.000000   0.000024   0.000076   0.000006
     7  H    0.000000  -0.000094  -0.000024  -0.000006
     8  H   -0.000000   0.000832  -0.000581   0.000016
     9  C    0.000009  -0.003332   0.000498   0.000945
    10  H   -0.000000  -0.000120   0.000002  -0.000032
    11  C   -0.000002   0.000493  -0.000024   0.000106
    12  H   -0.000000   0.000079   0.000000  -0.000059
    13  H   -0.000000  -0.000045  -0.000000   0.000018
    14  H    0.000035  -0.000174  -0.000005   0.000114
    15  C   -0.006705   0.003141   0.000062  -0.000098
    16  H    0.000223  -0.000086  -0.000003  -0.000002
    17  H    0.000153  -0.000123   0.000004   0.000012
    18  H    0.002203   0.000141   0.000006  -0.000011
    19  C   -0.035971  -0.048870   0.000556   0.000972
    20  C    0.003359  -0.007184  -0.001878   0.000145
    21  H   -0.000112   0.000276  -0.000035  -0.000012
    22  H    0.000053  -0.002348  -0.001472   0.000041
    23  H   -0.000124   0.000191   0.000040   0.000033
    24  C    0.403007   0.341679  -0.043138  -0.044013
    25  H    0.558251  -0.041945   0.003304  -0.003531
    26  C   -0.041945   4.978473   0.414999   0.415015
    27  H    0.003304   0.414999   0.579621  -0.029793
    28  H   -0.003531   0.415015  -0.029793   0.581227
 Mulliken charges:
               1
     1  C   -0.233930
     2  H    0.119761
     3  H    0.121822
     4  C    0.015186
     5  C   -0.339634
     6  H    0.116197
     7  H    0.117238
     8  H    0.112906
     9  C   -0.154393
    10  H    0.116189
    11  C   -0.353729
    12  H    0.118734
    13  H    0.121018
    14  H    0.115969
    15  C   -0.341873
    16  H    0.115433
    17  H    0.116061
    18  H    0.118366
    19  C    0.023241
    20  C   -0.349192
    21  H    0.119128
    22  H    0.119464
    23  H    0.122459
    24  C   -0.161375
    25  H    0.116946
    26  C   -0.234417
    27  H    0.118885
    28  H    0.123540
 Sum of Mulliken charges =  -0.00000
 Mulliken charges with hydrogens summed into heavy atoms:
               1
     1  C    0.007654
     4  C    0.015186
     5  C    0.006707
     9  C   -0.038203
    11  C    0.001992
    15  C    0.007986
    19  C    0.023241
    20  C    0.011859
    24  C   -0.044430
    26  C    0.008008
 Electronic spatial extent (au):  <R**2>=           2545.0005
 Charge=             -0.0000 electrons
 Dipole moment (field-independent basis, Debye):
    X=              0.3493    Y=              0.1468    Z=              0.0262  Tot=              0.3798
 Quadrupole moment (field-independent basis, Debye-Ang):
   XX=            -63.8829   YY=            -63.9184   ZZ=            -67.2167
   XY=              0.9690   XZ=              0.9081   YZ=             -0.2409
 Traceless Quadrupole moment (field-independent basis, Debye-Ang):
   XX=              1.1231   YY=              1.0876   ZZ=             -2.2107
   XY=              0.9690   XZ=              0.9081   YZ=             -0.2409
 Octapole moment (field-independent basis, Debye-Ang**2):
  XXX=              0.9329  YYY=             -2.8091  ZZZ=              0.8882  XYY=             -0.2783
  XXY=              1.7955  XXZ=             -2.7163  XZZ=              1.8068  YZZ=              1.3757
  YYZ=              0.5293  XYZ=             -0.3806
 Hexadecapole moment (field-independent basis, Debye-Ang**3):
 XXXX=          -2708.1516 YYYY=           -641.3409 ZZZZ=           -161.4630 XXXY=              7.6893
 XXXZ=             11.8538 YYYX=             -8.1695 YYYZ=             -1.4925 ZZZX=              2.8098
 ZZZY=              1.9621 XXYY=           -565.0448 XXZZ=           -492.0591 YYZZ=           -130.8312
 XXYZ=             -3.0961 YYXZ=              1.7791 ZZXY=              8.1535
 N-N= 5.132776287819D+02 E-N=-1.931189445619D+03  KE= 3.886243790585D+02
 No NMR shielding tensors so no spin-rotation constants.
 Leave Link  601 at Fri Sep 17 14:59:20 2021, MaxMem=   524288000 cpu:               0.3 elap:               0.3
 (Enter /opt/gaussian/g16_legacy/l701.exe)
 ... and contract with generalized density number  2.
 Compute integral first derivatives.
 Leave Link  701 at Fri Sep 17 14:59:20 2021, MaxMem=   524288000 cpu:               0.3 elap:               0.3
 (Enter /opt/gaussian/g16_legacy/l702.exe)
 L702 exits ... SP integral derivatives will be done elsewhere.
 Leave Link  702 at Fri Sep 17 14:59:20 2021, MaxMem=   524288000 cpu:               0.0 elap:               0.1
 (Enter /opt/gaussian/g16_legacy/l703.exe)
 Integral derivatives from FoFJK, PRISM(SPDF).
 Compute integral first derivatives, UseDBF=F ICtDFT=           0.
 Calling FoFJK, ICntrl=  10002127 FMM=F ISym2X=0 I1Cent= 0 IOpClX= 0 NMat=1 NMatS=1 NMatT=0.
 FoFJK:  IHMeth= 1 ICntrl=10002127 DoSepK=F KAlg= 0 I1Cent=           0 FoldK=F
 IRaf=         0 NMat=       1 IRICut=       1 DoRegI=T DoRafI=F ISym2E= 0 IDoP0=0 IntGTp=1.
 FoFCou: FMM=F IPFlag=           0 FMFlag=      100000 FMFlg1=         800
         NFxFlg=           0 DoJE=F BraDBF=F KetDBF=F FulRan=T
         wScrn=  0.000000 ICntrl=  10002127 IOpCl=  0 I1Cent=           0 NGrid=           0
         NMat0=    1 NMatS0=      1 NMatT0=    0 NMatD0=    1 NMtDS0=    0 NMtDT0=    0
 Symmetry not used in FoFCou.
 Leave Link  703 at Fri Sep 17 14:59:54 2021, MaxMem=   524288000 cpu:              33.6 elap:              33.6
 (Enter /opt/gaussian/g16_legacy/l716.exe)
 Dipole        = 1.00128768D-01 3.50108069D-02 3.63074188D-03
 ***** Axes restored to original set *****
 -------------------------------------------------------------------
 Center     Atomic                   Forces (Hartrees/Bohr)
 Number     Number              X              Y              Z
 -------------------------------------------------------------------
      1        6           0.008428645    0.003287970   -0.000635380
      2        1          -0.000250915   -0.004086832   -0.001669533
      3        1          -0.000495871   -0.003946491    0.000133623
      4        6           0.003536114    0.004186124    0.002778969
      5        6           0.002838320   -0.001133763    0.000293936
      6        1          -0.001425267   -0.003025976   -0.000493348
      7        1          -0.003206691    0.001107227   -0.002453447
      8        1          -0.000013175    0.002621360    0.002066134
      9        6          -0.002296430   -0.002793560    0.000904622
     10        1          -0.003103931   -0.000130201    0.001672722
     11        6          -0.001111232    0.000556922   -0.002548184
     12        1          -0.000081557    0.003520068    0.000365640
     13        1          -0.000658605   -0.001766850   -0.002836970
     14        1           0.002309926    0.000094723    0.002515309
     15        6           0.000782379    0.001841386   -0.002777260
     16        1          -0.001780237   -0.002905244   -0.000904948
     17        1          -0.000303115    0.002786030    0.001803395
     18        1           0.001338177   -0.002100258    0.003581084
     19        6           0.001315749    0.004386571   -0.003155599
     20        6           0.003949275   -0.001424878    0.002027948
     21        1          -0.001052041   -0.002715709   -0.002285470
     22        1          -0.001917049    0.000252746   -0.002896113
     23        1          -0.000331176    0.002369570    0.002008677
     24        6           0.001165854   -0.004916384   -0.000643394
     25        1          -0.002318396    0.000088337    0.002444214
     26        6          -0.007089607   -0.002127684   -0.002022265
     27        1           0.000051601    0.003214732   -0.000063635
     28        1           0.001719253    0.002760066    0.002789273
 -------------------------------------------------------------------
 Cartesian Forces:  Max     0.008428645 RMS     0.002541394
 Leave Link  716 at Fri Sep 17 14:59:54 2021, MaxMem=   524288000 cpu:               0.1 elap:               0.1
 (Enter /opt/gaussian/g16_legacy/l103.exe)

 GradGradGradGradGradGradGradGradGradGradGradGradGradGradGradGradGradGrad
 Berny optimization.
 FormGI is forming the generalized inverse of G from B-inverse, IUseBI=4.
 Internal  Forces:  Max     0.004121263 RMS     0.001895310
 Search for a local minimum.
 Step number   1 out of a maximum of  138
 All quantities printed in internal units (Hartrees-Bohrs-Radians)
 RMS Force = .18953D-02 SwitMx=.10000D-02 MixMth= 1
 Mixed Optimization -- RFO/linear search
 Second derivative matrix not updated -- first step.
 ITU=  0
     Eigenvalues ---    0.00342   0.00570   0.00668   0.00679   0.00693
     Eigenvalues ---    0.00716   0.00820   0.01219   0.01287   0.01570
     Eigenvalues ---    0.01642   0.02779   0.02784   0.04013   0.04133
     Eigenvalues ---    0.05350   0.05403   0.06981   0.07038   0.07088
     Eigenvalues ---    0.07092   0.07265   0.07300   0.07347   0.07506
     Eigenvalues ---    0.09278   0.09365   0.12769   0.12846   0.15999
     Eigenvalues ---    0.15999   0.16000   0.16000   0.16000   0.16000
     Eigenvalues ---    0.16000   0.16000   0.16000   0.16000   0.16000
     Eigenvalues ---    0.16000   0.16000   0.16000   0.21859   0.21867
     Eigenvalues ---    0.22000   0.22000   0.24993   0.24996   0.24998
     Eigenvalues ---    0.24999   0.29234   0.30872   0.31613   0.31701
     Eigenvalues ---    0.31809   0.31981   0.32812   0.33867   0.33925
     Eigenvalues ---    0.34064   0.34188   0.34212   0.34226   0.34247
     Eigenvalues ---    0.34248   0.34251   0.34256   0.34268   0.34292
     Eigenvalues ---    0.34298   0.34335   0.34544   0.34560   0.34791
     Eigenvalues ---    0.34850   0.55496   0.55569
 RFO step:  Lambda=-2.87238110D-03 EMin= 3.41789714D-03
 Linear search not attempted -- first point.
 Iteration  1 RMS(Cart)=  0.04044629 RMS(Int)=  0.00070864
 Iteration  2 RMS(Cart)=  0.00101931 RMS(Int)=  0.00015644
 Iteration  3 RMS(Cart)=  0.00000056 RMS(Int)=  0.00015644
 ITry= 1 IFail=0 DXMaxC= 1.31D-01 DCOld= 1.00D+10 DXMaxT= 3.00D-01 DXLimC= 3.00D+00 Rises=F
 Variable       Old X    -DE/DX   Delta X   Delta X   Delta X     New X
                                 (Linear)    (Quad)   (Total)
    R1        2.07554  -0.00308   0.00000  -0.00901  -0.00901   2.06654
    R2        2.07222  -0.00293   0.00000  -0.00853  -0.00853   2.06369
    R3        2.86258  -0.00348   0.00000  -0.01117  -0.01117   2.85141
    R4        2.89518   0.00158   0.00000   0.00536   0.00536   2.90054
    R5        2.84857  -0.00059   0.00000  -0.00184  -0.00184   2.84673
    R6        2.54694  -0.00392   0.00000  -0.00702  -0.00702   2.53992
    R7        2.06915  -0.00216   0.00000  -0.00626  -0.00626   2.06289
    R8        2.06973  -0.00379   0.00000  -0.01099  -0.01099   2.05874
    R9        2.06841  -0.00172   0.00000  -0.00498  -0.00498   2.06343
   R10        2.05919  -0.00216   0.00000  -0.00614  -0.00614   2.05305
   R11        2.82682   0.00313   0.00000   0.00946   0.00946   2.83628
   R12        2.06913  -0.00273   0.00000  -0.00791  -0.00791   2.06122
   R13        2.06769  -0.00160   0.00000  -0.00461  -0.00461   2.06308
   R14        2.06395  -0.00301   0.00000  -0.00863  -0.00863   2.05532
   R15        2.06909  -0.00198   0.00000  -0.00574  -0.00574   2.06335
   R16        2.06901  -0.00195   0.00000  -0.00564  -0.00564   2.06337
   R17        2.06950  -0.00397   0.00000  -0.01150  -0.01150   2.05800
   R18        2.84695  -0.00077   0.00000  -0.00241  -0.00241   2.84453
   R19        2.84179  -0.00046   0.00000  -0.00141  -0.00141   2.84038
   R20        2.54630  -0.00326   0.00000  -0.00584  -0.00584   2.54046
   R21        2.07014  -0.00273   0.00000  -0.00791  -0.00791   2.06223
   R22        2.06422  -0.00290   0.00000  -0.00833  -0.00833   2.05589
   R23        2.06880  -0.00187   0.00000  -0.00540  -0.00540   2.06340
   R24        2.06016  -0.00204   0.00000  -0.00583  -0.00583   2.05433
   R25        2.84495  -0.00137   0.00000  -0.00428  -0.00428   2.84066
   R26        2.06830  -0.00236   0.00000  -0.00681  -0.00681   2.06149
   R27        2.07457  -0.00280   0.00000  -0.00820  -0.00820   2.06637
    A1        1.82991   0.00206   0.00000   0.02224   0.02207   1.85198
    A2        1.90143  -0.00009   0.00000   0.00115   0.00115   1.90258
    A3        1.91819  -0.00275   0.00000  -0.02410  -0.02413   1.89406
    A4        1.93129  -0.00018   0.00000   0.00554   0.00557   1.93686
    A5        1.91969  -0.00200   0.00000  -0.01366  -0.01370   1.90599
    A6        1.95888   0.00287   0.00000   0.00934   0.00938   1.96826
    A7        2.00703   0.00175   0.00000   0.00724   0.00670   2.01373
    A8        2.17218  -0.00412   0.00000  -0.01591  -0.01643   2.15575
    A9        2.10376   0.00239   0.00000   0.00984   0.00928   2.11305
   A10        1.92481   0.00165   0.00000   0.00903   0.00905   1.93386
   A11        1.95919  -0.00265   0.00000  -0.01327  -0.01323   1.94595
   A12        1.92851   0.00228   0.00000   0.01214   0.01216   1.94067
   A13        1.87751   0.00112   0.00000   0.01038   0.01041   1.88792
   A14        1.89477  -0.00307   0.00000  -0.02466  -0.02465   1.87012
   A15        1.87688   0.00055   0.00000   0.00556   0.00560   1.88247
   A16        2.06926  -0.00196   0.00000  -0.01344  -0.01346   2.05579
   A17        2.22589  -0.00182   0.00000  -0.00813  -0.00815   2.21775
   A18        1.98791   0.00378   0.00000   0.02175   0.02173   2.00963
   A19        1.91009   0.00237   0.00000   0.01551   0.01545   1.92554
   A20        1.91730   0.00386   0.00000   0.02275   0.02271   1.94001
   A21        1.98091  -0.00285   0.00000  -0.01752  -0.01744   1.96347
   A22        1.88706  -0.00306   0.00000  -0.01870  -0.01887   1.86819
   A23        1.87275   0.00046   0.00000   0.00451   0.00458   1.87733
   A24        1.89313  -0.00096   0.00000  -0.00763  -0.00754   1.88559
   A25        1.89486  -0.00313   0.00000  -0.02542  -0.02542   1.86945
   A26        1.87909   0.00092   0.00000   0.00941   0.00945   1.88854
   A27        1.92491   0.00221   0.00000   0.01242   0.01244   1.93736
   A28        1.87885   0.00092   0.00000   0.00788   0.00792   1.88676
   A29        1.92349   0.00175   0.00000   0.00877   0.00879   1.93228
   A30        1.96063  -0.00277   0.00000  -0.01389  -0.01386   1.94677
   A31        1.99475   0.00146   0.00000   0.00582   0.00580   2.00055
   A32        2.10558   0.00189   0.00000   0.00751   0.00748   2.11306
   A33        2.18282  -0.00335   0.00000  -0.01321  -0.01324   2.16958
   A34        1.92089  -0.00000   0.00000  -0.00095  -0.00093   1.91996
   A35        1.97935  -0.00213   0.00000  -0.00962  -0.00960   1.96975
   A36        1.92172   0.00225   0.00000   0.01137   0.01139   1.93311
   A37        1.86352   0.00195   0.00000   0.01662   0.01663   1.88015
   A38        1.89065  -0.00237   0.00000  -0.02148  -0.02146   1.86919
   A39        1.88481   0.00022   0.00000   0.00327   0.00329   1.88811
   A40        2.06733  -0.00179   0.00000  -0.01215  -0.01256   2.05477
   A41        2.22777  -0.00177   0.00000  -0.00776  -0.00818   2.21960
   A42        1.98794   0.00358   0.00000   0.02075   0.02033   2.00827
   A43        1.94445   0.00331   0.00000   0.01371   0.01375   1.95820
   A44        1.93088  -0.00167   0.00000  -0.01695  -0.01703   1.91385
   A45        1.91626  -0.00337   0.00000  -0.02309  -0.02329   1.89297
   A46        1.94485  -0.00130   0.00000  -0.00741  -0.00735   1.93750
   A47        1.88213   0.00136   0.00000   0.02213   0.02225   1.90438
   A48        1.84173   0.00155   0.00000   0.01195   0.01169   1.85342
    D1        0.64501  -0.00074   0.00000   0.02458   0.02436   0.66937
    D2       -2.47459  -0.00170   0.00000  -0.03664  -0.03647  -2.51106
    D3        2.64804   0.00158   0.00000   0.05505   0.05486   2.70290
    D4       -0.47157   0.00062   0.00000  -0.00617  -0.00596  -0.47753
    D5       -1.48342   0.00091   0.00000   0.04813   0.04794  -1.43548
    D6        1.68016  -0.00005   0.00000  -0.01310  -0.01288   1.66727
    D7        1.04061  -0.00077   0.00000  -0.01193  -0.01185   1.02876
    D8       -1.13302  -0.00027   0.00000   0.00017   0.00030  -1.13273
    D9        3.12441   0.00082   0.00000   0.00928   0.00919   3.13360
   D10       -0.96549  -0.00055   0.00000  -0.01727  -0.01728  -0.98276
   D11       -3.13913  -0.00005   0.00000  -0.00516  -0.00513   3.13893
   D12        1.11831   0.00104   0.00000   0.00394   0.00376   1.12207
   D13       -3.12372  -0.00088   0.00000  -0.02105  -0.02099   3.13848
   D14        0.98583  -0.00038   0.00000  -0.00894  -0.00884   0.97699
   D15       -1.03992   0.00071   0.00000   0.00017   0.00005  -1.03987
   D16       -1.03803   0.00011   0.00000  -0.03758  -0.03789  -1.07592
[...]
                 (A) (A) (A) (A) (A) (A) (A) (A) (A) (A) (A) (A)
                 (A) (A) (A) (A) (A) (A) (A) (A) (A) (A) (A) (A)
                 (A) (A) (A) (A) (A) (A) (A) (A) (A) (A) (A) (A)
                 (A) (A) (A) (A) (A) (A) (A) (A) (A) (A) (A) (A)
                 (A) (A) (A) (A) (A) (A) (A) (A) (A) (A) (A) (A)
                 (A) (A) (A) (A) (A) (A) (A) (A) (A) (A) (A) (A)
                 (A) (A) (A) (A) (A) (A) (A) (A) (A) (A) (A) (A)
                 (A) (A) (A) (A) (A) (A) (A) (A) (A) (A) (A) (A)
                 (A) (A) (A) (A) (A) (A) (A) (A) (A) (A) (A) (A)
                 (A) (A) (A) (A) (A) (A) (A) (A) (A) (A) (A) (A)
                 (A) (A) (A) (A) (A) (A) (A) (A) (A) (A) (A) (A)
                 (A) (A) (A) (A) (A) (A) (A) (A) (A) (A) (A) (A)
                 (A) (A) (A) (A) (A) (A) (A) (A) (A) (A) (A) (A)
                 (A) (A) (A) (A) (A) (A) (A) (A) (A) (A) (A) (A)
                 (A) (A) (A) (A) (A) (A) (A) (A) (A)
 The electronic state is 1-A.
 Alpha  occ. eigenvalues --  -11.23028 -11.22456 -11.21863 -11.21726 -11.21721
 Alpha  occ. eigenvalues --  -11.21541 -11.21497 -11.21449 -11.21393 -11.21358
 Alpha  occ. eigenvalues --   -1.10803  -1.08495  -1.01828  -0.98138  -0.93839
 Alpha  occ. eigenvalues --   -0.91936  -0.86954  -0.82861  -0.70567  -0.69489
 Alpha  occ. eigenvalues --   -0.64754  -0.61539  -0.60720  -0.58828  -0.58414
 Alpha  occ. eigenvalues --   -0.56814  -0.55405  -0.54979  -0.53298  -0.52217
 Alpha  occ. eigenvalues --   -0.51714  -0.51214  -0.50653  -0.50166  -0.47383
 Alpha  occ. eigenvalues --   -0.46917  -0.44458  -0.33328  -0.31563
 Alpha virt. eigenvalues --    0.18100   0.19932   0.22053   0.24536   0.24955
 Alpha virt. eigenvalues --    0.27424   0.28601   0.28877   0.30353   0.30694
 Alpha virt. eigenvalues --    0.31966   0.32601   0.32969   0.33726   0.34466
 Alpha virt. eigenvalues --    0.35524   0.36421   0.37370   0.38662   0.39972
 Alpha virt. eigenvalues --    0.40998   0.42095   0.42777   0.44262   0.45477
 Alpha virt. eigenvalues --    0.51938   0.54227   0.61292   0.62632   0.69521
 Alpha virt. eigenvalues --    0.71676   0.71855   0.74127   0.75627   0.76300
 Alpha virt. eigenvalues --    0.77310   0.78587   0.80192   0.80428   0.82510
 Alpha virt. eigenvalues --    0.83060   0.85963   0.89706   0.90634   0.91906
 Alpha virt. eigenvalues --    0.92727   0.94246   0.96733   0.97890   0.99038
 Alpha virt. eigenvalues --    0.99663   1.01316   1.02330   1.04636   1.06421
 Alpha virt. eigenvalues --    1.06946   1.08561   1.08610   1.11036   1.12563
 Alpha virt. eigenvalues --    1.13528   1.14242   1.14315   1.15516   1.15561
 Alpha virt. eigenvalues --    1.15995   1.16443   1.18511   1.18881   1.20423
 Alpha virt. eigenvalues --    1.21361   1.22874   1.23837   1.26678   1.27279
 Alpha virt. eigenvalues --    1.29587   1.40505   1.41229   1.45131   1.46302
 Alpha virt. eigenvalues --    1.47303   1.54539   1.56916   1.57904   1.58162
 Alpha virt. eigenvalues --    1.61580   1.62900   1.65166   1.67986   1.70099
 Alpha virt. eigenvalues --    1.73688   1.82808   1.91104   1.92024   1.96649
 Alpha virt. eigenvalues --    1.98629   2.01394   2.02264   2.04662   2.08570
 Alpha virt. eigenvalues --    2.09659   2.11023   2.11867   2.13286   2.14333
 Alpha virt. eigenvalues --    2.15615   2.17830   2.19386   2.23464   2.28302
 Alpha virt. eigenvalues --    2.29342   2.30634   2.33018   2.35331   2.35655
 Alpha virt. eigenvalues --    2.35947   2.36091   2.39306   2.40246   2.40800
 Alpha virt. eigenvalues --    2.42218   2.43338   2.43738   2.45452   2.46063
 Alpha virt. eigenvalues --    2.47468   2.49490   2.50160   2.50478   2.53353
 Alpha virt. eigenvalues --    2.56171   2.59443   2.61268   2.62977   2.65059
 Alpha virt. eigenvalues --    2.67062   2.68311   2.71449   2.72617   2.74255
 Alpha virt. eigenvalues --    2.76086   2.77474   2.80595   2.82947   2.83712
 Alpha virt. eigenvalues --    2.86556   2.90534   2.92645   2.94406   2.94575
 Alpha virt. eigenvalues --    2.97681   2.98672   3.01242   3.02716   3.05048
 Alpha virt. eigenvalues --    3.06983   3.08131   3.09712   3.12652   3.17075
 Alpha virt. eigenvalues --    3.17580   3.18813   3.20184   3.20611   3.22304
 Alpha virt. eigenvalues --    3.23445   3.25849   3.26685   3.27777   3.38376
 Alpha virt. eigenvalues --    3.40097   3.45764   3.46979   3.56086   3.58279
 Alpha virt. eigenvalues --    3.59222   3.61997   3.68641   3.74872   3.78914
 Alpha virt. eigenvalues --    3.79698   3.81279   3.82681   3.83341   3.84006
 Alpha virt. eigenvalues --    3.84104   3.86511   3.88184   3.89137   3.91421
 Alpha virt. eigenvalues --    3.97579   4.59401   4.62757   4.74521   4.82179
 Alpha virt. eigenvalues --    4.89167   4.92294   4.93230   5.07407   5.10903
 Alpha virt. eigenvalues --    5.17835
          Condensed to atoms (all electrons):
               1          2          3          4          5          6
     1  C    5.003997   0.412745   0.413411   0.339222  -0.057161  -0.003571
     2  H    0.412745   0.584867  -0.028359  -0.045647  -0.004621   0.002410
     3  H    0.413411  -0.028359   0.576310  -0.039654   0.003215  -0.000037
     4  C    0.339222  -0.045647  -0.039654   4.951262   0.352880  -0.041600
     5  C   -0.057161  -0.004621   0.003215   0.352880   4.891657   0.397676
     6  H   -0.003571   0.002410  -0.000037  -0.041600   0.397676   0.591603
     7  H    0.003819   0.000114  -0.000111  -0.042642   0.407271  -0.026708
     8  H   -0.000045  -0.000557  -0.000012  -0.045807   0.400489  -0.037732
     9  C   -0.046575   0.002347  -0.001941   0.696859  -0.046080  -0.000465
    10  H    0.003280  -0.000115   0.000029  -0.037937  -0.006573   0.000218
    11  C   -0.007739   0.000152  -0.002699  -0.049997   0.003357  -0.000104
    12  H    0.000295  -0.000013  -0.000067  -0.000357  -0.000097  -0.000004
    13  H    0.000167   0.000018   0.000160  -0.000541  -0.000105   0.000017
    14  H   -0.002166   0.000038  -0.001508  -0.000577   0.000102   0.000001
    15  C   -0.000102  -0.000045  -0.000001   0.000002  -0.000000   0.000000
    16  H    0.000024  -0.000008  -0.000001  -0.000000   0.000000  -0.000000
    17  H   -0.000005   0.000002   0.000000   0.000000  -0.000000   0.000000
    18  H   -0.000003  -0.000002   0.000002   0.000000  -0.000000  -0.000000
    19  C   -0.004098   0.001256   0.000622  -0.000004   0.000007  -0.000001
    20  C    0.000549   0.000191  -0.000016  -0.000019  -0.000025  -0.000001
    21  H    0.000120  -0.000099  -0.000001  -0.000004   0.000001   0.000000
    22  H   -0.000058   0.000094  -0.000011  -0.000061   0.000096  -0.000000
    23  H   -0.000041   0.000017   0.000000   0.000001  -0.000000   0.000000
    24  C   -0.062090   0.000057  -0.001230   0.006210  -0.000074   0.000003
    25  H   -0.000091   0.000171   0.001049  -0.000105  -0.000002   0.000000
    26  C    0.331128  -0.045730  -0.042384  -0.055684  -0.001011   0.000075
    27  H   -0.042601  -0.002340   0.004316  -0.002245  -0.000436   0.000058
    28  H   -0.046716   0.004692  -0.002896  -0.001441   0.000280   0.000005
               7          8          9         10         11         12
     1  C    0.003819  -0.000045  -0.046575   0.003280  -0.007739   0.000295
     2  H    0.000114  -0.000557   0.002347  -0.000115   0.000152  -0.000013
     3  H   -0.000111  -0.000012  -0.001941   0.000029  -0.002699  -0.000067
     4  C   -0.042642  -0.045807   0.696859  -0.037937  -0.049997  -0.000357
     5  C    0.407271   0.400489  -0.046080  -0.006573   0.003357  -0.000097
     6  H   -0.026708  -0.037732  -0.000465   0.000218  -0.000104  -0.000004
     7  H    0.568320  -0.027516  -0.002982   0.002347   0.000133  -0.000005
     8  H   -0.027516   0.599593  -0.000883   0.000143  -0.000102   0.000016
     9  C   -0.002982  -0.000883   4.938271   0.404337   0.340912  -0.041711
    10  H    0.002347   0.000143   0.404337   0.559262  -0.041317  -0.001238
    11  C    0.000133  -0.000102   0.340912  -0.041317   4.898015   0.401889
    12  H   -0.000005   0.000016  -0.041711  -0.001238   0.401889   0.585671
    13  H   -0.000006  -0.000004  -0.041774  -0.001163   0.401438  -0.035520
    14  H    0.000005  -0.000002  -0.043875   0.003330   0.409145  -0.029082
    15  C    0.000000  -0.000000  -0.000000   0.000000   0.000000  -0.000000
    16  H   -0.000000   0.000000   0.000000  -0.000000  -0.000000   0.000000
    17  H    0.000000   0.000000  -0.000000   0.000000  -0.000000  -0.000000
    18  H   -0.000000  -0.000000  -0.000000   0.000000  -0.000000  -0.000000
    19  C   -0.000000   0.000021  -0.000003   0.000000   0.000000   0.000000
    20  C    0.000000  -0.000043  -0.000000  -0.000000  -0.000000  -0.000000
    21  H   -0.000000  -0.000001   0.000000  -0.000000   0.000000   0.000000
    22  H   -0.000001   0.000361  -0.000001   0.000000  -0.000000   0.000000
    23  H    0.000000  -0.000000   0.000000   0.000000   0.000000  -0.000000
    24  C    0.000002  -0.000104   0.000036   0.000002  -0.000027  -0.000007
    25  H    0.000000  -0.000000   0.000007  -0.000000  -0.000002  -0.000000
    26  C   -0.000108   0.000669  -0.004455  -0.000120   0.000509   0.000149
    27  H   -0.000040  -0.000466   0.000648   0.000001  -0.000030  -0.000000
    28  H   -0.000004  -0.000003   0.001236  -0.000038   0.000051  -0.000081
              13         14         15         16         17         18
     1  C    0.000167  -0.002166  -0.000102   0.000024  -0.000005  -0.000003
     2  H    0.000018   0.000038  -0.000045  -0.000008   0.000002  -0.000002
     3  H    0.000160  -0.001508  -0.000001  -0.000001   0.000000   0.000002
     4  C   -0.000541  -0.000577   0.000002  -0.000000   0.000000   0.000000
     5  C   -0.000105   0.000102  -0.000000   0.000000  -0.000000  -0.000000
     6  H    0.000017   0.000001   0.000000  -0.000000   0.000000  -0.000000
     7  H   -0.000006   0.000005   0.000000  -0.000000   0.000000  -0.000000
     8  H   -0.000004  -0.000002  -0.000000   0.000000   0.000000  -0.000000
     9  C   -0.041774  -0.043875  -0.000000   0.000000  -0.000000  -0.000000
    10  H   -0.001163   0.003330   0.000000  -0.000000   0.000000   0.000000
    11  C    0.401438   0.409145   0.000000  -0.000000  -0.000000  -0.000000
    12  H   -0.035520  -0.029082  -0.000000   0.000000  -0.000000  -0.000000
    13  H    0.584890  -0.027817   0.000000  -0.000000   0.000000  -0.000000
    14  H   -0.027817   0.577276  -0.000000  -0.000000   0.000000   0.000000
    15  C    0.000000  -0.000000   4.900552   0.398175   0.398829   0.406165
    16  H   -0.000000  -0.000000   0.398175   0.594540  -0.037823  -0.026667
    17  H    0.000000   0.000000   0.398829  -0.037823   0.593696  -0.026546
    18  H   -0.000000   0.000000   0.406165  -0.026667  -0.026546   0.565965
    19  C   -0.000000   0.000001   0.353472  -0.043823  -0.044307  -0.041665
    20  C    0.000000   0.000000  -0.065053  -0.001990  -0.001177   0.003789
    21  H   -0.000000  -0.000000  -0.002670   0.002769  -0.000486  -0.000029
    22  H   -0.000000   0.000000   0.003758  -0.000068  -0.000032  -0.000115
    23  H    0.000000   0.000000  -0.002204  -0.000448   0.002752  -0.000055
    24  C    0.000002   0.000064  -0.044228  -0.000470  -0.001279  -0.002577
    25  H   -0.000000   0.000025  -0.006998   0.000180   0.000188   0.002368
    26  C   -0.000037  -0.000554   0.003136  -0.000071  -0.000128   0.000144
    27  H   -0.000000  -0.000004   0.000050  -0.000004   0.000006   0.000007
    28  H    0.000025   0.000016  -0.000091  -0.000002   0.000009  -0.000009
              19         20         21         22         23         24
     1  C   -0.004098   0.000549   0.000120  -0.000058  -0.000041  -0.062090
     2  H    0.001256   0.000191  -0.000099   0.000094   0.000017   0.000057
     3  H    0.000622  -0.000016  -0.000001  -0.000011   0.000000  -0.001230
     4  C   -0.000004  -0.000019  -0.000004  -0.000061   0.000001   0.006210
     5  C    0.000007  -0.000025   0.000001   0.000096  -0.000000  -0.000074
     6  H   -0.000001  -0.000001   0.000000  -0.000000   0.000000   0.000003
     7  H   -0.000000   0.000000  -0.000000  -0.000001   0.000000   0.000002
     8  H    0.000021  -0.000043  -0.000001   0.000361  -0.000000  -0.000104
     9  C   -0.000003  -0.000000   0.000000  -0.000001   0.000000   0.000036
    10  H    0.000000  -0.000000  -0.000000   0.000000   0.000000   0.000002
    11  C    0.000000  -0.000000   0.000000  -0.000000   0.000000  -0.000027
    12  H    0.000000  -0.000000   0.000000   0.000000  -0.000000  -0.000007
    13  H   -0.000000   0.000000  -0.000000  -0.000000   0.000000   0.000002
    14  H    0.000001   0.000000  -0.000000   0.000000   0.000000   0.000064
    15  C    0.353472  -0.065053  -0.002670   0.003758  -0.002204  -0.044228
    16  H   -0.043823  -0.001990   0.002769  -0.000068  -0.000448  -0.000470
    17  H   -0.044307  -0.001177  -0.000486  -0.000032   0.002752  -0.001279
    18  H   -0.041665   0.003789  -0.000029  -0.000115  -0.000055  -0.002577
    19  C    4.915064   0.350683  -0.043358  -0.037727  -0.043642   0.696285
    20  C    0.350683   4.904567   0.401034   0.406928   0.400306  -0.044156
    21  H   -0.043358   0.401034   0.586876  -0.028092  -0.035758  -0.000024
    22  H   -0.037727   0.406928  -0.028092   0.570628  -0.026774  -0.003150
    23  H   -0.043642   0.400306  -0.035758  -0.026774   0.585123  -0.000377
    24  C    0.696285  -0.044156  -0.000024  -0.003150  -0.000377   4.960934
    25  H   -0.038332   0.003541  -0.000122   0.000051  -0.000120   0.403960
    26  C   -0.049354  -0.007949   0.000348  -0.002567   0.000140   0.340992
    27  H    0.000417  -0.002567  -0.000063  -0.001998   0.000086  -0.044503
    28  H    0.001446   0.000178  -0.000014   0.000062   0.000024  -0.041006
              25         26         27         28
     1  C   -0.000091   0.331128  -0.042601  -0.046716
     2  H    0.000171  -0.045730  -0.002340   0.004692
     3  H    0.001049  -0.042384   0.004316  -0.002896
     4  C   -0.000105  -0.055684  -0.002245  -0.001441
     5  C   -0.000002  -0.001011  -0.000436   0.000280
     6  H    0.000000   0.000075   0.000058   0.000005
     7  H    0.000000  -0.000108  -0.000040  -0.000004
     8  H   -0.000000   0.000669  -0.000466  -0.000003
     9  C    0.000007  -0.004455   0.000648   0.001236
    10  H   -0.000000  -0.000120   0.000001  -0.000038
    11  C   -0.000002   0.000509  -0.000030   0.000051
    12  H   -0.000000   0.000149  -0.000000  -0.000081
    13  H   -0.000000  -0.000037  -0.000000   0.000025
    14  H    0.000025  -0.000554  -0.000004   0.000016
    15  C   -0.006998   0.003136   0.000050  -0.000091
    16  H    0.000180  -0.000071  -0.000004  -0.000002
    17  H    0.000188  -0.000128   0.000006   0.000009
    18  H    0.002368   0.000144   0.000007  -0.000009
    19  C   -0.038332  -0.049354   0.000417   0.001446
    20  C    0.003541  -0.007949  -0.002567   0.000178
    21  H   -0.000122   0.000348  -0.000063  -0.000014
    22  H    0.000051  -0.002567  -0.001998   0.000062
    23  H   -0.000120   0.000140   0.000086   0.000024
    24  C    0.403960   0.340992  -0.044503  -0.041006
    25  H    0.558056  -0.040061   0.003267  -0.003353
    26  C   -0.040061   4.977839   0.416251   0.413228
    27  H    0.003267   0.416251   0.582598  -0.028540
    28  H   -0.003353   0.413228  -0.028540   0.579538
 Mulliken charges:
               1
     1  C   -0.235696
     2  H    0.118365
     3  H    0.121814
     4  C    0.017883
     5  C   -0.340845
     6  H    0.118156
     7  H    0.118112
     8  H    0.111985
     9  C   -0.153908
    10  H    0.115552
    11  C   -0.353585
    12  H    0.120163
    13  H    0.120250
    14  H    0.115581
    15  C   -0.342746
    16  H    0.115688
    17  H    0.116299
    18  H    0.119226
    19  C    0.027041
    20  C   -0.348771
    21  H    0.119572
    22  H    0.118676
    23  H    0.120971
    24  C   -0.163245
    25  H    0.116321
    26  C   -0.234395
    27  H    0.118132
    28  H    0.123405
 Sum of Mulliken charges =  -0.00000
 Mulliken charges with hydrogens summed into heavy atoms:
               1
     1  C    0.004483
     4  C    0.017883
     5  C    0.007409
     9  C   -0.038356
    11  C    0.002408
    15  C    0.008468
    19  C    0.027041
    20  C    0.010448
    24  C   -0.046924
    26  C    0.007142
 Electronic spatial extent (au):  <R**2>=           2498.6172
 Charge=             -0.0000 electrons
 Dipole moment (field-independent basis, Debye):
    X=              0.3626    Y=              0.1699    Z=              0.0498  Tot=              0.4035
 Quadrupole moment (field-independent basis, Debye-Ang):
   XX=            -63.7582   YY=            -63.7112   ZZ=            -67.3994
   XY=              1.0617   XZ=              1.2177   YZ=             -0.3674
 Traceless Quadrupole moment (field-independent basis, Debye-Ang):
   XX=              1.1981   YY=              1.2451   ZZ=             -2.4431
   XY=              1.0617   XZ=              1.2177   YZ=             -0.3674
 Octapole moment (field-independent basis, Debye-Ang**2):
  XXX=              2.8324  YYY=             -2.8562  ZZZ=              0.8775  XYY=             -0.7382
  XXY=              1.7309  XXZ=             -2.8066  XZZ=              1.5462  YZZ=              1.4376
  YYZ=              0.7861  XYZ=             -0.4940
 Hexadecapole moment (field-independent basis, Debye-Ang**3):
 XXXX=          -2633.5351 YYYY=           -638.9543 ZZZZ=           -166.0438 XXXY=             10.5034
 XXXZ=             13.5605 YYYX=             -7.0822 YYYZ=             -1.6738 ZZZX=              4.0400
 ZZZY=              2.3776 XXYY=           -550.6721 XXZZ=           -483.2677 YYZZ=           -131.1157
 XXYZ=             -4.5757 YYXZ=              2.5312 ZZXY=              7.7339
 N-N= 5.156964764310D+02 E-N=-1.936106318547D+03  KE= 3.887456768739D+02
 No NMR shielding tensors so no spin-rotation constants.
 Leave Link  601 at Fri Sep 17 16:45:05 2021, MaxMem=   524288000 cpu:               0.3 elap:               0.6
 (Enter /opt/gaussian/g16_legacy/l9999.exe)
 1\1\GINC-TRUENO91\FOpt\RMP2-FC\6-31G(d,p)\C10H18\JRAMOS\17-Sep-2021\0\
 \#p opt mp2/6-31g(d,p)\\Conformer number 2976. Energy MM = 23.287 kcal
 /mol\\0,1\C,0.7536775474,0.6285534137,-0.2480326564\H,0.2641546921,1.0
 681526976,0.6254295601\H,0.7990396924,1.4165780224,-1.0017292562\C,2.1
 32769926,0.1542542171,0.1352979007\C,2.2676036926,-0.3615746476,1.5425
 04008\H,2.0721441851,0.431932382,2.2670753\H,3.2646752792,-0.758079557
 2,1.7299513095\H,1.544810439,-1.1565014711,1.7399171435\C,3.1783278065
 ,0.1326919141,-0.7121196975\H,4.1216810723,-0.2549055904,-0.3373440623
 \C,3.1930054451,0.5876317057,-2.1398228144\H,3.478656241,-0.2318305237
 ,-2.8018777343\H,3.9237179445,1.3849893358,-2.2878696052\H,2.223430527
 1,0.9547245726,-2.4680695643\C,-3.9306947,0.4174746891,-0.8541267529\H
 ,-4.309034643,1.179585332,-0.169121489\H,-4.6886210345,-0.3676169386,-
 0.9038152089\H,-3.8359423558,0.8634493654,-1.8429990174\C,-2.618932539
 9,-0.1355893232,-0.3693218503\C,-2.6710780511,-0.7745189475,0.99078925
 83\H,-3.0454913843,-0.0603268984,1.7272412621\H,-1.7015427844,-1.12871
 18779,1.3315050138\H,-3.3629571457,-1.6197322295,0.9906358488\C,-1.509
 8352719,-0.0482868319,-1.1275871332\H,-1.5986777468,0.4575555987,-2.08
 58832388\C,-0.1303942252,-0.5187211444,-0.7737995222\H,-0.1641116536,-
 1.3168537738,-0.0310825914\H,0.3496190459,-0.9443234909,-1.6588444101\
 \Version=EM64L-G16RevA.03\State=1-A\HF=-389.1568792\MP2=-390.573553\RM
 SD=2.393e-09\RMSF=3.828e-06\Dipole=-0.1025741,-0.0061789,0.0508819\PG=
 C01 [X(C10H18)]\\@


 PERICLES, SOPHOCLES,
 PELOPONESIAN WAR,
 FRENCH VERBS, LATIN VERBS
 H2SO4.
 Job cpu time:       0 days  1 hours 50 minutes 37.6 seconds.
 Elapsed time:       0 days  1 hours 50 minutes 56.4 seconds.
 File lengths (MBytes):  RWF=     32 Int=      0 D2E=      0 Chk=      7 Scr=      1
 Normal termination of Gaussian 16 at Fri Sep 17 16:45:06 2021.
