 Entering Gaussian System, Link 0=/opt/gaussian/g16_legacy/g16
 Input=01-IsoP_2733_gaussian.com
 Output=01-IsoP_2733_gaussian.log
 Initial command:
 /opt/gaussian/g16_legacy/l1.exe "/scratch-local/jramos/2661367/Gau-6433.inp" -scrdir="/scratch-local/jramos/2661367/"
 Entering Link 1 = /opt/gaussian/g16_legacy/l1.exe PID=      6434.
  
 Copyright (c) 1988,1990,1992,1993,1995,1998,2003,2009,2016,
            Gaussian, Inc.  All Rights Reserved.
  
 This is part of the Gaussian(R) 16 program.  It is based on
 the Gaussian(R) 09 system (copyright 2009, Gaussian, Inc.),
 the Gaussian(R) 03 system (copyright 2003, Gaussian, Inc.),
 the Gaussian(R) 98 system (copyright 1998, Gaussian, Inc.),
 the Gaussian(R) 94 system (copyright 1995, Gaussian, Inc.),
 the Gaussian 92(TM) system (copyright 1992, Gaussian, Inc.),
 the Gaussian 90(TM) system (copyright 1990, Gaussian, Inc.),
 the Gaussian 88(TM) system (copyright 1988, Gaussian, Inc.),
 the Gaussian 86(TM) system (copyright 1986, Carnegie Mellon
 University), and the Gaussian 82(TM) system (copyright 1983,
 Carnegie Mellon University). Gaussian is a federally registered
 trademark of Gaussian, Inc.
  
 This software contains proprietary and confidential information,
 including trade secrets, belonging to Gaussian, Inc.
  
 This software is provided under written license and may be
 used, copied, transmitted, or stored only in accord with that
 written license.
  
 The following legend is applicable only to US Government
 contracts under FAR:
  
                    RESTRICTED RIGHTS LEGEND
  
 Use, reproduction and disclosure by the US Government is
 subject to restrictions as set forth in subparagraphs (a)
 and (c) of the Commercial Computer Software - Restricted
 Rights clause in FAR 52.227-19.
  
 Gaussian, Inc.
 340 Quinnipiac St., Bldg. 40, Wallingford CT 06492
  
  
 ---------------------------------------------------------------
 Warning -- This program may not be used in any manner that
 competes with the business of Gaussian, Inc. or will provide
 assistance to any competitor of Gaussian, Inc.  The licensee
 of this program is prohibited from giving any competitor of
 Gaussian, Inc. access to this program.  By using this program,
 the user acknowledges that Gaussian, Inc. is engaged in the
 business of creating and licensing software in the field of
 computational chemistry and represents and warrants to the
 licensee that it is not a competitor of Gaussian, Inc. and that
 it will not use this program in any manner prohibited above.
 ---------------------------------------------------------------
  

 Cite this work as:
 Gaussian 16, Revision A.03,
 M. J. Frisch, G. W. Trucks, H. B. Schlegel, G. E. Scuseria, 
 M. A. Robb, J. R. Cheeseman, G. Scalmani, V. Barone, 
 G. A. Petersson, H. Nakatsuji, X. Li, M. Caricato, A. V. Marenich, 
 J. Bloino, B. G. Janesko, R. Gomperts, B. Mennucci, H. P. Hratchian, 
 J. V. Ortiz, A. F. Izmaylov, J. L. Sonnenberg, D. Williams-Young, 
 F. Ding, F. Lipparini, F. Egidi, J. Goings, B. Peng, A. Petrone, 
 T. Henderson, D. Ranasinghe, V. G. Zakrzewski, J. Gao, N. Rega, 
 G. Zheng, W. Liang, M. Hada, M. Ehara, K. Toyota, R. Fukuda, 
 J. Hasegawa, M. Ishida, T. Nakajima, Y. Honda, O. Kitao, H. Nakai, 
 T. Vreven, K. Throssell, J. A. Montgomery, Jr., J. E. Peralta, 
 F. Ogliaro, M. J. Bearpark, J. J. Heyd, E. N. Brothers, K. N. Kudin, 
 V. N. Staroverov, T. A. Keith, R. Kobayashi, J. Normand, 
 K. Raghavachari, A. P. Rendell, J. C. Burant, S. S. Iyengar, 
 J. Tomasi, M. Cossi, J. M. Millam, M. Klene, C. Adamo, R. Cammi, 
 J. W. Ochterski, R. L. Martin, K. Morokuma, O. Farkas, 
 J. B. Foresman, and D. J. Fox, Gaussian, Inc., Wallingford CT, 2016.
 
 ******************************************
 Gaussian 16:  EM64L-G16RevA.03 25-Dec-2016
                17-Sep-2021 
 ******************************************
 %chk=01-IsoP_2733_gaussian.chk
 %nproc=1
 Will use up to    1 processors via shared memory.
 %mem=4000Mb
 ---------------------
 #p opt mp2/6-31g(d,p)
 ---------------------
 1/18=20,19=15,38=1/1,3;
 2/9=110,12=2,17=6,18=5,40=1/2;
 3/5=1,6=6,7=101,11=9,25=1,30=1,71=1/1,2,3;
 4//1;
 5/5=2,38=5/2;
 8/6=4,10=2/1;
 9/15=2,16=-3/6;
 10/5=1/2;
 6/7=2,8=2,9=2,10=2/1;
 7/12=2/1,2,3,16;
 1/18=20,19=15/3(2);
 2/9=110/2;
 99//99;
 2/9=110/2;
 3/5=1,6=6,7=101,11=9,25=1,30=1,71=1/1,2,3;
 4/5=5,16=3,69=1/1;
 5/5=2,38=5/2;
 8/6=4,10=2/1;
 9/15=2,16=-3/6;
 10/5=1/2;
 7/12=2/1,2,3,16;
 1/18=20,19=15/3(-8);
 2/9=110/2;
 6/7=2,8=2,9=2,10=2/1;
 99//99;
 Leave Link    1 at Fri Sep 17 14:49:45 2021, MaxMem=   524288000 cpu:               0.0 elap:               0.2
 (Enter /opt/gaussian/g16_legacy/l101.exe)
 --------------------------------------------------
 Conformer number 2733. Energy MM = 23.287 kcal/mol
 --------------------------------------------------
 Symbolic Z-matrix:
 Charge =  0 Multiplicity = 1
 C                    -0.6541   -0.6369   -0.4829 
 H                    -0.0014   -0.8815   -1.3318 
 H                    -0.7425   -1.5723    0.0824 
 C                    -2.0056   -0.2022   -1.0113 
 C                    -1.9622    0.6097   -2.2807 
 H                    -1.4833    0.0368   -3.0814 
 H                    -2.9623    0.8907   -2.6277 
 H                    -1.3953    1.5331   -2.1258 
 C                    -3.1849   -0.5155   -0.4388 
 H                    -4.1028   -0.1709   -0.9145 
 C                    -3.4089   -1.2862    0.8236 
 H                    -4.0665   -0.7153    1.4872 
 H                    -3.8983   -2.238     0.596 
 H                    -2.4899   -1.4931    1.3763 
 C                     3.7937   -0.1969    1.1732 
 H                     4.399    -0.7702    0.4635 
 H                     3.5541   -0.8561    2.0142 
 H                     4.3994    0.6288    1.5608 
 C                     2.5592    0.3372    0.4947 
 C                     2.8379    1.2565   -0.6624 
 H                     1.9429    1.5263   -1.2276 
 H                     3.3037    2.1806   -0.3051 
 H                     3.5242    0.7752   -1.3677 
 C                     1.3321   -0.02      0.9213 
 H                     1.2549   -0.71      1.7618 
 C                     0.0023    0.4405    0.3863 
 H                     0.098     1.3788   -0.1691 
 H                    -0.6435    0.671     1.2435 
 
 ITRead=  0  0  0  0  0  0  0  0  0  0  0  0  0  0  0  0  0  0  0  0
 ITRead=  0  0  0  0  0  0  0  0
 MicOpt= -1 -1 -1 -1 -1 -1 -1 -1 -1 -1 -1 -1 -1 -1 -1 -1 -1 -1 -1 -1
 MicOpt= -1 -1 -1 -1 -1 -1 -1 -1
 NAtoms=     28 NQM=       28 NQMF=       0 NMMI=      0 NMMIF=      0
                NMic=       0 NMicF=      0.
                    Isotopes and Nuclear Properties:
 (Nuclear quadrupole moments (NQMom) in fm**2, nuclear magnetic moments (NMagM)
  in nuclear magnetons)

  Atom         1           2           3           4           5           6           7           8           9          10
 IAtWgt=          12           1           1          12          12           1           1           1          12           1
 AtmWgt=  12.0000000   1.0078250   1.0078250  12.0000000  12.0000000   1.0078250   1.0078250   1.0078250  12.0000000   1.0078250
 NucSpn=           0           1           1           0           0           1           1           1           0           1
 AtZEff=  -0.0000000  -0.0000000  -0.0000000  -0.0000000  -0.0000000  -0.0000000  -0.0000000  -0.0000000  -0.0000000  -0.0000000
 NQMom=    0.0000000   0.0000000   0.0000000   0.0000000   0.0000000   0.0000000   0.0000000   0.0000000   0.0000000   0.0000000
 NMagM=    0.0000000   2.7928460   2.7928460   0.0000000   0.0000000   2.7928460   2.7928460   2.7928460   0.0000000   2.7928460
 AtZNuc=   6.0000000   1.0000000   1.0000000   6.0000000   6.0000000   1.0000000   1.0000000   1.0000000   6.0000000   1.0000000

  Atom        11          12          13          14          15          16          17          18          19          20
 IAtWgt=          12           1           1           1          12           1           1           1          12          12
 AtmWgt=  12.0000000   1.0078250   1.0078250   1.0078250  12.0000000   1.0078250   1.0078250   1.0078250  12.0000000  12.0000000
 NucSpn=           0           1           1           1           0           1           1           1           0           0
 AtZEff=  -0.0000000  -0.0000000  -0.0000000  -0.0000000  -0.0000000  -0.0000000  -0.0000000  -0.0000000  -0.0000000  -0.0000000
 NQMom=    0.0000000   0.0000000   0.0000000   0.0000000   0.0000000   0.0000000   0.0000000   0.0000000   0.0000000   0.0000000
 NMagM=    0.0000000   2.7928460   2.7928460   2.7928460   0.0000000   2.7928460   2.7928460   2.7928460   0.0000000   0.0000000
 AtZNuc=   6.0000000   1.0000000   1.0000000   1.0000000   6.0000000   1.0000000   1.0000000   1.0000000   6.0000000   6.0000000

  Atom        21          22          23          24          25          26          27          28
 IAtWgt=           1           1           1          12           1          12           1           1
 AtmWgt=   1.0078250   1.0078250   1.0078250  12.0000000   1.0078250  12.0000000   1.0078250   1.0078250
 NucSpn=           1           1           1           0           1           0           1           1
 AtZEff=  -0.0000000  -0.0000000  -0.0000000  -0.0000000  -0.0000000  -0.0000000  -0.0000000  -0.0000000
 NQMom=    0.0000000   0.0000000   0.0000000   0.0000000   0.0000000   0.0000000   0.0000000   0.0000000
 NMagM=    2.7928460   2.7928460   2.7928460   0.0000000   2.7928460   0.0000000   2.7928460   2.7928460
 AtZNuc=   1.0000000   1.0000000   1.0000000   6.0000000   1.0000000   6.0000000   1.0000000   1.0000000
 Leave Link  101 at Fri Sep 17 14:49:46 2021, MaxMem=   524288000 cpu:               0.3 elap:               0.5
 (Enter /opt/gaussian/g16_legacy/l103.exe)

 GradGradGradGradGradGradGradGradGradGradGradGradGradGradGradGradGradGrad
 Berny optimization.
 Initialization pass.
                           ----------------------------
                           !    Initial Parameters    !
                           ! (Angstroms and Degrees)  !
 --------------------------                            --------------------------
 ! Name  Definition              Value          Derivative Info.                !
 --------------------------------------------------------------------------------
 ! R1    R(1,2)                  1.0984         estimate D2E/DX2                !
 ! R2    R(1,3)                  1.0965         estimate D2E/DX2                !
 ! R3    R(1,4)                  1.5148         estimate D2E/DX2                !
 ! R4    R(1,26)                 1.532          estimate D2E/DX2                !
 ! R5    R(4,5)                  1.5075         estimate D2E/DX2                !
 ! R6    R(4,9)                  1.3478         estimate D2E/DX2                !
 ! R7    R(5,6)                  1.0948         estimate D2E/DX2                !
 ! R8    R(5,7)                  1.0952         estimate D2E/DX2                !
 ! R9    R(5,8)                  1.0945         estimate D2E/DX2                !
 ! R10   R(9,10)                 1.0898         estimate D2E/DX2                !
 ! R11   R(9,11)                 1.4959         estimate D2E/DX2                !
 ! R12   R(11,12)                1.0949         estimate D2E/DX2                !
 ! R13   R(11,13)                1.0942         estimate D2E/DX2                !
 ! R14   R(11,14)                1.0922         estimate D2E/DX2                !
 ! R15   R(15,16)                1.0949         estimate D2E/DX2                !
 ! R16   R(15,17)                1.0951         estimate D2E/DX2                !
 ! R17   R(15,18)                1.0949         estimate D2E/DX2                !
 ! R18   R(15,19)                1.5065         estimate D2E/DX2                !
 ! R19   R(19,20)                1.5039         estimate D2E/DX2                !
 ! R20   R(19,24)                1.3474         estimate D2E/DX2                !
 ! R21   R(20,21)                1.0924         estimate D2E/DX2                !
 ! R22   R(20,22)                1.0948         estimate D2E/DX2                !
 ! R23   R(20,23)                1.0955         estimate D2E/DX2                !
 ! R24   R(24,25)                1.0902         estimate D2E/DX2                !
 ! R25   R(24,26)                1.5055         estimate D2E/DX2                !
 ! R26   R(26,27)                1.0945         estimate D2E/DX2                !
 ! R27   R(26,28)                1.0977         estimate D2E/DX2                !
 ! A1    A(2,1,3)              104.8552         estimate D2E/DX2                !
 ! A2    A(2,1,4)              108.9338         estimate D2E/DX2                !
 ! A3    A(2,1,26)             109.9063         estimate D2E/DX2                !
 ! A4    A(3,1,4)              110.6526         estimate D2E/DX2                !
 ! A5    A(3,1,26)             109.9965         estimate D2E/DX2                !
 ! A6    A(4,1,26)             112.2313         estimate D2E/DX2                !
 ! A7    A(1,4,5)              114.9988         estimate D2E/DX2                !
 ! A8    A(1,4,9)              124.4545         estimate D2E/DX2                !
 ! A9    A(5,4,9)              120.5347         estimate D2E/DX2                !
 ! A10   A(4,5,6)              110.2801         estimate D2E/DX2                !
 ! A11   A(4,5,7)              112.2521         estimate D2E/DX2                !
 ! A12   A(4,5,8)              110.4942         estimate D2E/DX2                !
 ! A13   A(6,5,7)              107.5755         estimate D2E/DX2                !
 ! A14   A(6,5,8)              108.5661         estimate D2E/DX2                !
 ! A15   A(7,5,8)              107.5373         estimate D2E/DX2                !
 ! A16   A(4,9,10)             118.5585         estimate D2E/DX2                !
 ! A17   A(4,9,11)             127.533          estimate D2E/DX2                !
 ! A18   A(10,9,11)            113.9012         estimate D2E/DX2                !
 ! A19   A(9,11,12)            109.4375         estimate D2E/DX2                !
 ! A20   A(9,11,13)            109.8522         estimate D2E/DX2                !
 ! A21   A(9,11,14)            113.4941         estimate D2E/DX2                !
 ! A22   A(12,11,13)           108.1203         estimate D2E/DX2                !
 ! A23   A(12,11,14)           107.3043         estimate D2E/DX2                !
 ! A24   A(13,11,14)           108.4714         estimate D2E/DX2                !
 ! A25   A(16,15,17)           107.6718         estimate D2E/DX2                !
 ! A26   A(16,15,18)           108.5723         estimate D2E/DX2                !
 ! A27   A(16,15,19)           110.2874         estimate D2E/DX2                !
 ! A28   A(17,15,18)           107.6449         estimate D2E/DX2                !
 ! A29   A(17,15,19)           112.3334         estimate D2E/DX2                !
 ! A30   A(18,15,19)           110.2048         estimate D2E/DX2                !
 ! A31   A(15,19,20)           114.2915         estimate D2E/DX2                !
 ! A32   A(15,19,24)           120.6448         estimate D2E/DX2                !
 ! A33   A(20,19,24)           125.0612         estimate D2E/DX2                !
 ! A34   A(19,20,21)           113.4057         estimate D2E/DX2                !
 ! A35   A(19,20,22)           110.1034         estimate D2E/DX2                !
 ! A36   A(19,20,23)           110.0533         estimate D2E/DX2                !
 ! A37   A(21,20,22)           107.9976         estimate D2E/DX2                !
 ! A38   A(21,20,23)           106.7789         estimate D2E/DX2                !
 ! A39   A(22,20,23)           108.3256         estimate D2E/DX2                !
 ! A40   A(19,24,25)           118.4502         estimate D2E/DX2                !
 ! A41   A(19,24,26)           127.65           estimate D2E/DX2                !
 ! A42   A(25,24,26)           113.8919         estimate D2E/DX2                !
 ! A43   A(1,26,24)            111.404          estimate D2E/DX2                !
 ! A44   A(1,26,27)            110.636          estimate D2E/DX2                !
 ! A45   A(1,26,28)            109.7943         estimate D2E/DX2                !
 ! A46   A(24,26,27)           111.4257         estimate D2E/DX2                !
 ! A47   A(24,26,28)           107.8407         estimate D2E/DX2                !
 ! A48   A(27,26,28)           105.526          estimate D2E/DX2                !
 ! D1    D(2,1,4,5)            -36.9508         estimate D2E/DX2                !
 ! D2    D(2,1,4,9)            141.7911         estimate D2E/DX2                !
 ! D3    D(3,1,4,5)           -151.7193         estimate D2E/DX2                !
 ! D4    D(3,1,4,9)             27.0225         estimate D2E/DX2                !
 ! D5    D(26,1,4,5)            84.9922         estimate D2E/DX2                !
 ! D6    D(26,1,4,9)           -96.2659         estimate D2E/DX2                !
 ! D7    D(2,1,26,24)          -59.6291         estimate D2E/DX2                !
 ! D8    D(2,1,26,27)           64.9033         estimate D2E/DX2                !
 ! D9    D(2,1,26,28)         -179.0229         estimate D2E/DX2                !
 ! D10   D(3,1,26,24)           55.3278         estimate D2E/DX2                !
 ! D11   D(3,1,26,27)          179.8602         estimate D2E/DX2                !
 ! D12   D(3,1,26,28)          -64.066          estimate D2E/DX2                !
 ! D13   D(4,1,26,24)          178.9838         estimate D2E/DX2                !
 ! D14   D(4,1,26,27)          -56.4839         estimate D2E/DX2                !
 ! D15   D(4,1,26,28)           59.59           estimate D2E/DX2                !
 ! D16   D(1,4,5,6)             59.4759         estimate D2E/DX2                !
 ! D17   D(1,4,5,7)            179.4104         estimate D2E/DX2                !
 ! D18   D(1,4,5,8)            -60.5565         estimate D2E/DX2                !
 ! D19   D(9,4,5,6)           -119.3197         estimate D2E/DX2                !
 ! D20   D(9,4,5,7)              0.6148         estimate D2E/DX2                !
 ! D21   D(9,4,5,8)            120.6479         estimate D2E/DX2                !
 ! D22   D(1,4,9,10)          -178.5634         estimate D2E/DX2                !
 ! D23   D(1,4,9,11)             2.481          estimate D2E/DX2                !
 ! D24   D(5,4,9,10)             0.1128         estimate D2E/DX2                !
 ! D25   D(5,4,9,11)          -178.8428         estimate D2E/DX2                !
 ! D26   D(4,9,11,12)          127.8668         estimate D2E/DX2                !
 ! D27   D(4,9,11,13)         -113.5744         estimate D2E/DX2                !
 ! D28   D(4,9,11,14)            8.0429         estimate D2E/DX2                !
 ! D29   D(10,9,11,12)         -51.1298         estimate D2E/DX2                !
 ! D30   D(10,9,11,13)          67.429          estimate D2E/DX2                !
 ! D31   D(10,9,11,14)        -170.9537         estimate D2E/DX2                !
 ! D32   D(16,15,19,20)        -60.2873         estimate D2E/DX2                !
 ! D33   D(16,15,19,24)        119.1597         estimate D2E/DX2                !
 ! D34   D(17,15,19,20)        179.5971         estimate D2E/DX2                !
 ! D35   D(17,15,19,24)         -0.956          estimate D2E/DX2                !
 ! D36   D(18,15,19,20)         59.5723         estimate D2E/DX2                !
 ! D37   D(18,15,19,24)       -120.9807         estimate D2E/DX2                !
 ! D38   D(15,19,20,21)        172.1145         estimate D2E/DX2                !
 ! D39   D(15,19,20,22)        -66.7572         estimate D2E/DX2                !
 ! D40   D(15,19,20,23)         52.5852         estimate D2E/DX2                !
 ! D41   D(24,19,20,21)         -7.3043         estimate D2E/DX2                !
 ! D42   D(24,19,20,22)        113.8241         estimate D2E/DX2                !
 ! D43   D(24,19,20,23)       -126.8335         estimate D2E/DX2                !
 ! D44   D(15,19,24,25)         -0.5222         estimate D2E/DX2                !
 ! D45   D(15,19,24,26)        178.3849         estimate D2E/DX2                !
 ! D46   D(20,19,24,25)        178.862          estimate D2E/DX2                !
 ! D47   D(20,19,24,26)         -2.2309         estimate D2E/DX2                !
 ! D48   D(19,24,26,1)         103.6606         estimate D2E/DX2                !
 ! D49   D(19,24,26,27)        -20.4268         estimate D2E/DX2                !
 ! D50   D(19,24,26,28)       -135.7911         estimate D2E/DX2                !
 ! D51   D(25,24,26,1)         -77.3903         estimate D2E/DX2                !
 ! D52   D(25,24,26,27)        158.5223         estimate D2E/DX2                !
 ! D53   D(25,24,26,28)         43.158          estimate D2E/DX2                !
 --------------------------------------------------------------------------------
 Trust Radius=3.00D-01 FncErr=1.00D-07 GrdErr=1.00D-07 EigMax=2.50D+02 EigMin=1.00D-04
 Number of steps in this run=    138 maximum allowed number of steps=    168.
 GradGradGradGradGradGradGradGradGradGradGradGradGradGradGradGradGradGrad

 Leave Link  103 at Fri Sep 17 14:49:47 2021, MaxMem=   524288000 cpu:               0.0 elap:               0.2
 (Enter /opt/gaussian/g16_legacy/l202.exe)
                          Input orientation:                          
 ---------------------------------------------------------------------
 Center     Atomic      Atomic             Coordinates (Angstroms)
 Number     Number       Type             X           Y           Z
 ---------------------------------------------------------------------
      1          6           0       -0.654100   -0.636900   -0.482900
      2          1           0       -0.001400   -0.881500   -1.331800
      3          1           0       -0.742500   -1.572300    0.082400
      4          6           0       -2.005600   -0.202200   -1.011300
      5          6           0       -1.962200    0.609700   -2.280700
      6          1           0       -1.483300    0.036800   -3.081400
      7          1           0       -2.962300    0.890700   -2.627700
      8          1           0       -1.395300    1.533100   -2.125800
      9          6           0       -3.184900   -0.515500   -0.438800
     10          1           0       -4.102800   -0.170900   -0.914500
     11          6           0       -3.408900   -1.286200    0.823600
     12          1           0       -4.066500   -0.715300    1.487200
     13          1           0       -3.898300   -2.238000    0.596000
     14          1           0       -2.489900   -1.493100    1.376300
     15          6           0        3.793700   -0.196900    1.173200
     16          1           0        4.399000   -0.770200    0.463500
     17          1           0        3.554100   -0.856100    2.014200
     18          1           0        4.399400    0.628800    1.560800
     19          6           0        2.559200    0.337200    0.494700
     20          6           0        2.837900    1.256500   -0.662400
     21          1           0        1.942900    1.526300   -1.227600
     22          1           0        3.303700    2.180600   -0.305100
     23          1           0        3.524200    0.775200   -1.367700
     24          6           0        1.332100   -0.020000    0.921300
     25          1           0        1.254900   -0.710000    1.761800
     26          6           0        0.002300    0.440500    0.386300
     27          1           0        0.098000    1.378800   -0.169100
     28          1           0       -0.643500    0.671000    1.243500
 ---------------------------------------------------------------------
                    Distance matrix (angstroms):
                    1          2          3          4          5
     1  C    0.000000
     2  H    1.098398   0.000000
     3  H    1.096518   1.739654   0.000000
     4  C    1.514834   2.140324   2.160735   0.000000
     5  C    2.548965   2.639853   3.439918   1.507462   0.000000
     6  H    2.809563   2.469899   3.625964   2.148309   1.094843
     7  H    3.501645   3.686052   4.282350   2.173121   1.095249
     8  H    2.820886   2.898911   3.865980   2.150777   1.094549
     9  C    2.534094   3.326571   2.711788   1.347836   2.480658
    10  H    3.506703   4.183369   3.774831   2.099666   2.656691
    11  C    3.117283   4.052232   2.782251   2.551698   3.914595
    12  H    3.941055   4.949689   3.709028   3.279189   4.514507
    13  H    3.775232   4.554375   3.265887   3.210951   4.487013
    14  H    2.749521   3.728336   2.175743   2.757100   4.251339
    15  C    4.766465   4.598531   4.864019   6.197092   6.760948
    16  H    5.142690   4.753842   5.217626   6.596708   7.063967
    17  H    4.898214   4.882411   4.765036   6.363293   7.143130
    18  H    5.596121   5.478611   5.785295   6.951999   7.431517
    19  C    3.497123   3.373130   3.836327   4.836981   5.312265
    20  C    3.976336   3.616734   4.623430   5.070407   5.106682
    21  H    3.460986   3.096556   4.304509   4.315687   4.147165
    22  H    4.861492   4.621066   5.532282   5.862177   5.839557
    23  H    4.498343   3.895613   5.081169   5.626813   5.564310
    24  C    2.509449   2.756241   2.723482   3.861137   4.636997
    25  H    2.947593   3.343361   2.748373   4.310314   5.332274
    26  C    1.532045   2.167848   2.167590   2.529429   3.316742
    27  H    2.174206   2.543759   3.078747   2.762968   3.048736
    28  H    2.165911   3.074853   2.527914   2.775233   3.763338
                    6          7          8          9         10
     6  H    0.000000
     7  H    1.767040   0.000000
     8  H    1.777591   1.766372   0.000000
     9  C    3.191209   2.611175   3.200844   0.000000
    10  H    3.405932   2.315770   3.420734   1.089761   0.000000
    11  C    4.550526   4.104853   4.549945   1.495931   2.178619
    12  H    5.301951   4.553119   5.024379   2.127584   2.462895
    13  H    4.952798   4.588802   5.281515   2.132313   2.568333
    14  H    4.819225   4.683768   4.756127   2.175618   3.097971
    15  C    6.782549   7.827723   6.387646   7.169443   8.167856
    16  H    6.915130   8.154928   6.751561   7.641633   8.633577
    17  H    7.220652   8.189140   6.880729   7.179648   8.226476
    18  H    7.517090   8.473886   6.927289   7.926502   8.891234
    19  C    5.405602   6.367315   4.892368   5.881599   6.828342
    20  C    5.100196   6.135025   4.487542   6.282046   7.090440
    21  H    4.170615   5.140550   3.456933   5.575436   6.287210
    22  H    5.934567   6.805958   5.080827   7.027714   7.794688
    23  H    5.343880   6.608753   5.034939   6.894983   7.698807
    24  C    4.894008   5.645055   4.374431   4.743277   5.738560
    25  H    5.613558   6.294023   5.212340   4.959062   6.013166
    26  C    3.794064   4.251556   3.075339   3.428260   4.349452
    27  H    3.575327   3.955805   2.466258   3.799808   4.539153
    28  H    4.451094   4.517886   3.558174   3.270570   4.163234
                   11         12         13         14         15
    11  C    0.000000
    12  H    1.094865   0.000000
    13  H    1.094183   1.772327   0.000000
    14  H    1.092175   1.761516   1.774073   0.000000
    15  C    7.292890   7.883532   7.979105   6.419113   0.000000
    16  H    7.833213   8.527348   8.427169   6.986611   1.094868
    17  H    7.077138   7.640098   7.710979   6.110861   1.095095
    18  H    8.073428   8.572251   8.831829   7.211030   1.094937
    19  C    6.193692   6.781793   6.952785   5.442484   1.506524
    20  C    6.906231   7.495300   7.692301   6.332618   2.528903
    21  H    6.384304   6.964754   7.184364   5.962113   3.486936
    22  H    7.638826   8.119016   8.497341   7.063213   2.842178
    23  H    7.557714   8.245652   8.247969   6.988857   2.733822
    24  C    4.908145   5.472528   5.690556   4.121254   2.480770
    25  H    4.791999   5.328483   5.499940   3.845177   2.656168
    26  C    3.848248   4.370696   4.736351   3.306050   3.924309
    27  H    4.515089   4.946882   5.443991   4.163328   4.235894
    28  H    3.413852   3.701101   4.413078   2.847834   4.521829
                   16         17         18         19         20
    16  H    0.000000
    17  H    1.768023   0.000000
    18  H    1.777996   1.767776   0.000000
    19  C    2.147597   2.173171   2.146610   0.000000
    20  C    2.795031   3.484280   2.788352   1.503884   0.000000
    21  H    3.763796   4.333712   3.822967   2.181766   1.092368
    22  H    3.240008   3.829282   2.662748   2.142915   1.094803
    23  H    2.550849   3.754901   3.059987   2.142803   1.095493
    24  C    3.190338   2.613576   3.199724   1.347351   2.530808
    25  H    3.402142   2.317622   3.423546   2.098421   3.499965
    26  C    4.561000   4.116614   4.555150   2.561281   3.131494
    27  H    4.849431   4.658992   4.696498   2.753737   2.786639
    28  H    5.302100   4.532754   5.053049   3.305966   4.011909
                   21         22         23         24         25
    21  H    0.000000
    22  H    1.769433   0.000000
    23  H    1.756214   1.775637   0.000000
    24  C    2.716964   3.199047   3.267593   0.000000
    25  H    3.796168   4.101856   4.141173   1.090184   0.000000
    26  C    2.747647   3.795421   3.948711   1.505541   2.187386
    27  H    2.132096   3.307248   3.679650   2.160698   3.070811
    28  H    3.677953   4.500827   4.919242   2.117614   2.404105
                   26         27         28
    26  C    0.000000
    27  H    1.094548   0.000000
    28  H    1.097716   1.745349   0.000000
 Stoichiometry    C10H18
 Framework group  C1[X(C10H18)]
 Deg. of freedom    78
 Full point group                 C1      NOp   1
 Largest Abelian subgroup         C1      NOp   1
 Largest concise Abelian subgroup C1      NOp   1
                         Standard orientation:                         
 ---------------------------------------------------------------------
 Center     Atomic      Atomic             Coordinates (Angstroms)
 Number     Number       Type             X           Y           Z
 ---------------------------------------------------------------------
      1          6           0        0.745806   -0.045528    0.580333
      2          1           0        0.286595    0.606623    1.335516
      3          1           0        0.871564   -1.012095    1.082613
      4          6           0        2.090144    0.530354    0.185569
      5          6           0        2.144019    2.035429    0.120068
      6          1           0        1.893374    2.466896    1.094590
      7          1           0        3.137281    2.403146   -0.158830
      8          1           0        1.432570    2.412451   -0.621372
      9          6           0        3.189391   -0.206044   -0.071403
     10          1           0        4.114921    0.310432   -0.324835
     11          6           0        3.306922   -1.697346   -0.075135
     12          1           0        3.755127   -2.025140   -1.018741
     13          1           0        3.959043   -2.020727    0.741811
     14          1           0        2.347646   -2.209949    0.024226
     15          6           0       -3.933075   -0.920085    0.330510
     16          1           0       -4.322198   -0.557741    1.287602
     17          1           0       -3.745705   -1.994150    0.433032
     18          1           0       -4.707343   -0.789606   -0.432622
     19          6           0       -2.691965   -0.156366   -0.051580
     20          6           0       -2.901829    1.323949   -0.213728
     21          1           0       -1.972896    1.880960   -0.355468
     22          1           0       -3.548694    1.520203   -1.074916
     23          1           0       -3.383901    1.735114    0.679947
     24          6           0       -1.515340   -0.793273   -0.210507
     25          1           0       -1.481861   -1.870718   -0.047744
     26          6           0       -0.194765   -0.197048   -0.619470
     27          1           0       -0.329718    0.763023   -1.127491
     28          1           0        0.258350   -0.862979   -1.365260
 ---------------------------------------------------------------------
 Rotational constants (GHZ):           2.4778040           0.5324364           0.4581627
 Leave Link  202 at Fri Sep 17 14:49:48 2021, MaxMem=   524288000 cpu:               0.0 elap:               0.3
 (Enter /opt/gaussian/g16_legacy/l301.exe)
 Standard basis: 6-31G(d,p) (6D, 7F)
 Ernie: Thresh=  0.10000D-02 Tol=  0.10000D-05 Strict=F.
 There are   240 symmetry adapted cartesian basis functions of A   symmetry.
 There are   240 symmetry adapted basis functions of A   symmetry.
   240 basis functions,   406 primitive gaussians,   240 cartesian basis functions
    39 alpha electrons       39 beta electrons
       nuclear repulsion energy       513.2756342670 Hartrees.
 IExCor=    0 DFT=F Ex=HF Corr=None ExCW=0 ScaHFX=  1.000000
 ScaDFX=  1.000000  1.000000  1.000000  1.000000 ScalE2=  1.000000  1.000000
 IRadAn=      5 IRanWt=     -1 IRanGd=            0 ICorTp=0 IEmpDi=  4
 NAtoms=   28 NActive=   28 NUniq=   28 SFac= 1.00D+00 NAtFMM=   60 NAOKFM=F Big=F
 Integral buffers will be    131072 words long.
 Raffenetti 1 integral format.
 Two-electron integral symmetry is turned on.
 Leave Link  301 at Fri Sep 17 14:49:48 2021, MaxMem=   524288000 cpu:               0.1 elap:               0.6
 (Enter /opt/gaussian/g16_legacy/l302.exe)
 NPDir=0 NMtPBC=     1 NCelOv=     1 NCel=       1 NClECP=     1 NCelD=      1
         NCelK=      1 NCelE2=     1 NClLst=     1 CellRange=     0.0.
 One-electron integrals computed using PRISM.
 One-electron integral symmetry used in STVInt
 NBasis=   240 RedAO= T EigKep=  2.09D-03  NBF=   240
 NBsUse=   240 1.00D-06 EigRej= -1.00D+00 NBFU=   240
 Leave Link  302 at Fri Sep 17 14:49:51 2021, MaxMem=   524288000 cpu:               0.3 elap:               1.9
 (Enter /opt/gaussian/g16_legacy/l303.exe)
 DipDrv:  MaxL=1.
 Leave Link  303 at Fri Sep 17 14:49:51 2021, MaxMem=   524288000 cpu:               0.1 elap:               0.2
 (Enter /opt/gaussian/g16_legacy/l401.exe)
 ExpMin= 1.61D-01 ExpMax= 3.05D+03 ExpMxC= 4.57D+02 IAcc=3 IRadAn=         5 AccDes= 0.00D+00
 Harris functional with IExCor=  205 and IRadAn=       5 diagonalized for initial guess.
 HarFok:  IExCor=  205 AccDes= 0.00D+00 IRadAn=         5 IDoV= 1 UseB2=F ITyADJ=14
 ICtDFT=  3500011 ScaDFX=  1.000000  1.000000  1.000000  1.000000
 FoFCou: FMM=F IPFlag=           0 FMFlag=      100000 FMFlg1=           0
         NFxFlg=           0 DoJE=T BraDBF=F KetDBF=T FulRan=T
         wScrn=  0.000000 ICntrl=       500 IOpCl=  0 I1Cent=   200000004 NGrid=           0
         NMat0=    1 NMatS0=      1 NMatT0=    0 NMatD0=    1 NMtDS0=    0 NMtDT0=    0
 Petite list used in FoFCou.
 Harris En= -390.110049793432    
 JPrj=0 DoOrth=F DoCkMO=F.
 Leave Link  401 at Fri Sep 17 14:50:04 2021, MaxMem=   524288000 cpu:              11.2 elap:              12.7
 (Enter /opt/gaussian/g16_legacy/l502.exe)
 Keep R1 ints in memory in canonical form, NReq=425198025.
 FoFCou: FMM=F IPFlag=           0 FMFlag=           0 FMFlg1=           0
         NFxFlg=           0 DoJE=F BraDBF=F KetDBF=F FulRan=T
         wScrn=  0.000000 ICntrl=       600 IOpCl=  0 I1Cent=           0 NGrid=           0
         NMat0=    1 NMatS0=  28920 NMatT0=    0 NMatD0=    1 NMtDS0=    0 NMtDT0=    0
 Symmetry not used in FoFCou.
 Two-electron integral symmetry not used.
 Closed shell SCF:
 Using DIIS extrapolation, IDIIS=  1040.
 NGot=   524288000 LenX=   105970886 LenY=   105912845
 Requested convergence on RMS density matrix=1.00D-08 within 128 cycles.
 Requested convergence on MAX density matrix=1.00D-06.
 Requested convergence on             energy=1.00D-06.
 No special actions if energy rises.

 Cycle   1  Pass 1  IDiag  1:
 E= -388.532788471229    
 DIIS: error= 5.01D-02 at cycle   1 NSaved=   1.
 NSaved= 1 IEnMin= 1 EnMin= -388.532788471229     IErMin= 1 ErrMin= 5.01D-02
 ErrMax= 5.01D-02  0.00D+00 EMaxC= 1.00D-01 BMatC= 8.07D-01 BMatP= 8.07D-01
 IDIUse=3 WtCom= 4.99D-01 WtEn= 5.01D-01
 Coeff-Com:  0.100D+01
 Coeff-En:   0.100D+01
 Coeff:      0.100D+01
 Gap=     0.508 Goal=   None    Shift=    0.000
 GapD=    0.508 DampG=2.000 DampE=0.500 DampFc=1.0000 IDamp=-1.
 RMSDP=3.99D-03 MaxDP=1.15D-01              OVMax= 1.39D-01

 Cycle   2  Pass 1  IDiag  1:
 E= -389.074235565529     Delta-E=       -0.541447094300 Rises=F Damp=F
 DIIS: error= 1.46D-02 at cycle   2 NSaved=   2.
 NSaved= 2 IEnMin= 2 EnMin= -389.074235565529     IErMin= 2 ErrMin= 1.46D-02
 ErrMax= 1.46D-02  0.00D+00 EMaxC= 1.00D-01 BMatC= 8.63D-02 BMatP= 8.07D-01
 IDIUse=3 WtCom= 8.54D-01 WtEn= 1.46D-01
 Coeff-Com:  0.183D+00 0.817D+00
 Coeff-En:   0.000D+00 0.100D+01
 Coeff:      0.156D+00 0.844D+00
 Gap=     0.552 Goal=   None    Shift=    0.000
 RMSDP=1.62D-03 MaxDP=3.04D-02 DE=-5.41D-01 OVMax= 4.55D-02

 Cycle   3  Pass 1  IDiag  1:
 E= -389.151651873440     Delta-E=       -0.077416307911 Rises=F Damp=F
 DIIS: error= 2.67D-03 at cycle   3 NSaved=   3.
 NSaved= 3 IEnMin= 3 EnMin= -389.151651873440     IErMin= 3 ErrMin= 2.67D-03
 ErrMax= 2.67D-03  0.00D+00 EMaxC= 1.00D-01 BMatC= 3.01D-03 BMatP= 8.63D-02
 IDIUse=3 WtCom= 9.73D-01 WtEn= 2.67D-02
 Coeff-Com: -0.245D-01 0.102D+00 0.922D+00
 Coeff-En:   0.000D+00 0.000D+00 0.100D+01
 Coeff:     -0.239D-01 0.997D-01 0.924D+00
 Gap=     0.499 Goal=   None    Shift=    0.000
 RMSDP=2.54D-04 MaxDP=6.75D-03 DE=-7.74D-02 OVMax= 9.70D-03

 Cycle   4  Pass 1  IDiag  1:
 E= -389.155144721805     Delta-E=       -0.003492848366 Rises=F Damp=F
 DIIS: error= 4.95D-04 at cycle   4 NSaved=   4.
 NSaved= 4 IEnMin= 4 EnMin= -389.155144721805     IErMin= 4 ErrMin= 4.95D-04
 ErrMax= 4.95D-04  0.00D+00 EMaxC= 1.00D-01 BMatC= 9.59D-05 BMatP= 3.01D-03
 IDIUse=3 WtCom= 9.95D-01 WtEn= 4.95D-03
 Coeff-Com: -0.443D-02-0.837D-03 0.102D+00 0.903D+00
 Coeff-En:   0.000D+00 0.000D+00 0.000D+00 0.100D+01
 Coeff:     -0.440D-02-0.833D-03 0.102D+00 0.903D+00
 Gap=     0.500 Goal=   None    Shift=    0.000
 RMSDP=7.33D-05 MaxDP=1.75D-03 DE=-3.49D-03 OVMax= 3.51D-03

 Cycle   5  Pass 1  IDiag  1:
 E= -389.155269961434     Delta-E=       -0.000125239628 Rises=F Damp=F
 DIIS: error= 1.73D-04 at cycle   5 NSaved=   5.
 NSaved= 5 IEnMin= 5 EnMin= -389.155269961434     IErMin= 5 ErrMin= 1.73D-04
 ErrMax= 1.73D-04  0.00D+00 EMaxC= 1.00D-01 BMatC= 1.79D-05 BMatP= 9.59D-05
 IDIUse=3 WtCom= 9.98D-01 WtEn= 1.73D-03
 Coeff-Com:  0.248D-02-0.153D-01-0.106D+00 0.196D+00 0.922D+00
 Coeff-En:   0.000D+00 0.000D+00 0.000D+00 0.000D+00 0.100D+01
 Coeff:      0.247D-02-0.153D-01-0.105D+00 0.196D+00 0.923D+00
 Gap=     0.500 Goal=   None    Shift=    0.000
 RMSDP=3.09D-05 MaxDP=7.46D-04 DE=-1.25D-04 OVMax= 1.02D-03

 Cycle   6  Pass 1  IDiag  1:
 E= -389.155293582041     Delta-E=       -0.000023620607 Rises=F Damp=F
 DIIS: error= 3.74D-05 at cycle   6 NSaved=   6.
 NSaved= 6 IEnMin= 6 EnMin= -389.155293582041     IErMin= 6 ErrMin= 3.74D-05
 ErrMax= 3.74D-05  0.00D+00 EMaxC= 1.00D-01 BMatC= 5.51D-07 BMatP= 1.79D-05
 IDIUse=1 WtCom= 1.00D+00 WtEn= 0.00D+00
 Coeff-Com:  0.725D-03-0.330D-02-0.263D-01-0.271D-02 0.163D+00 0.868D+00
 Coeff:      0.725D-03-0.330D-02-0.263D-01-0.271D-02 0.163D+00 0.868D+00
 Gap=     0.500 Goal=   None    Shift=    0.000
 RMSDP=5.42D-06 MaxDP=1.67D-04 DE=-2.36D-05 OVMax= 3.13D-04

 Cycle   7  Pass 1  IDiag  1:
 E= -389.155294435794     Delta-E=       -0.000000853753 Rises=F Damp=F
 DIIS: error= 9.13D-06 at cycle   7 NSaved=   7.
 NSaved= 7 IEnMin= 7 EnMin= -389.155294435794     IErMin= 7 ErrMin= 9.13D-06
 ErrMax= 9.13D-06  0.00D+00 EMaxC= 1.00D-01 BMatC= 4.91D-08 BMatP= 5.51D-07
 IDIUse=1 WtCom= 1.00D+00 WtEn= 0.00D+00
 Coeff-Com: -0.555D-04 0.478D-03 0.325D-02-0.106D-01-0.462D-01 0.126D+00
 Coeff-Com:  0.927D+00
 Coeff:     -0.555D-04 0.478D-03 0.325D-02-0.106D-01-0.462D-01 0.126D+00
 Coeff:      0.927D+00
 Gap=     0.500 Goal=   None    Shift=    0.000
 RMSDP=1.70D-06 MaxDP=4.71D-05 DE=-8.54D-07 OVMax= 8.68D-05

 Cycle   8  Pass 1  IDiag  1:
 E= -389.155294520953     Delta-E=       -0.000000085159 Rises=F Damp=F
 DIIS: error= 2.98D-06 at cycle   8 NSaved=   8.
 NSaved= 8 IEnMin= 8 EnMin= -389.155294520953     IErMin= 8 ErrMin= 2.98D-06
 ErrMax= 2.98D-06  0.00D+00 EMaxC= 1.00D-01 BMatC= 4.91D-09 BMatP= 4.91D-08
 IDIUse=1 WtCom= 1.00D+00 WtEn= 0.00D+00
 Coeff-Com: -0.553D-04 0.226D-03 0.195D-02 0.331D-02-0.143D-01-0.848D-01
 Coeff-Com: -0.129D+00 0.122D+01
 Coeff:     -0.553D-04 0.226D-03 0.195D-02 0.331D-02-0.143D-01-0.848D-01
 Coeff:     -0.129D+00 0.122D+01
 Gap=     0.500 Goal=   None    Shift=    0.000
 RMSDP=7.76D-07 MaxDP=2.58D-05 DE=-8.52D-08 OVMax= 5.60D-05

 Cycle   9  Pass 1  IDiag  1:
 E= -389.155294536232     Delta-E=       -0.000000015279 Rises=F Damp=F
 DIIS: error= 1.35D-06 at cycle   9 NSaved=   9.
 NSaved= 9 IEnMin= 9 EnMin= -389.155294536232     IErMin= 9 ErrMin= 1.35D-06
 ErrMax= 1.35D-06  0.00D+00 EMaxC= 1.00D-01 BMatC= 6.51D-10 BMatP= 4.91D-09
 IDIUse=1 WtCom= 1.00D+00 WtEn= 0.00D+00
 Coeff-Com:  0.122D-04-0.776D-04-0.580D-03 0.123D-02 0.419D-02 0.522D-02
 Coeff-Com: -0.723D-01-0.196D+00 0.126D+01
 Coeff:      0.122D-04-0.776D-04-0.580D-03 0.123D-02 0.419D-02 0.522D-02
 Coeff:     -0.723D-01-0.196D+00 0.126D+01
 Gap=     0.500 Goal=   None    Shift=    0.000
 RMSDP=2.99D-07 MaxDP=1.28D-05 DE=-1.53D-08 OVMax= 2.62D-05

 Cycle  10  Pass 1  IDiag  1:
 E= -389.155294538446     Delta-E=       -0.000000002214 Rises=F Damp=F
 DIIS: error= 4.11D-07 at cycle  10 NSaved=  10.
 NSaved=10 IEnMin=10 EnMin= -389.155294538446     IErMin=10 ErrMin= 4.11D-07
 ErrMax= 4.11D-07  0.00D+00 EMaxC= 1.00D-01 BMatC= 8.51D-11 BMatP= 6.51D-10
 IDIUse=1 WtCom= 1.00D+00 WtEn= 0.00D+00
 Coeff-Com:  0.804D-05-0.368D-04-0.305D-03-0.200D-03 0.163D-02 0.134D-01
 Coeff-Com:  0.123D-01-0.193D+00 0.984D-01 0.107D+01
 Coeff:      0.804D-05-0.368D-04-0.305D-03-0.200D-03 0.163D-02 0.134D-01
 Coeff:      0.123D-01-0.193D+00 0.984D-01 0.107D+01
 Gap=     0.500 Goal=   None    Shift=    0.000
 RMSDP=1.08D-07 MaxDP=3.31D-06 DE=-2.21D-09 OVMax= 8.53D-06

 Cycle  11  Pass 1  IDiag  1:
 E= -389.155294538673     Delta-E=       -0.000000000227 Rises=F Damp=F
 DIIS: error= 1.55D-07 at cycle  11 NSaved=  11.
 NSaved=11 IEnMin=11 EnMin= -389.155294538673     IErMin=11 ErrMin= 1.55D-07
 ErrMax= 1.55D-07  0.00D+00 EMaxC= 1.00D-01 BMatC= 5.90D-12 BMatP= 8.51D-11
 IDIUse=1 WtCom= 1.00D+00 WtEn= 0.00D+00
 Coeff-Com: -0.504D-06 0.457D-05 0.335D-04-0.107D-03-0.455D-03 0.993D-03
 Coeff-Com:  0.874D-02 0.484D-02-0.107D+00 0.930D-01 0.100D+01
 Coeff:     -0.504D-06 0.457D-05 0.335D-04-0.107D-03-0.455D-03 0.993D-03
 Coeff:      0.874D-02 0.484D-02-0.107D+00 0.930D-01 0.100D+01
 Gap=     0.500 Goal=   None    Shift=    0.000
 RMSDP=2.30D-08 MaxDP=1.01D-06 DE=-2.27D-10 OVMax= 2.03D-06

 Cycle  12  Pass 1  IDiag  1:
 E= -389.155294538685     Delta-E=       -0.000000000012 Rises=F Damp=F
 DIIS: error= 4.42D-08 at cycle  12 NSaved=  12.
 NSaved=12 IEnMin=12 EnMin= -389.155294538685     IErMin=12 ErrMin= 4.42D-08
 ErrMax= 4.42D-08  0.00D+00 EMaxC= 1.00D-01 BMatC= 9.48D-13 BMatP= 5.90D-12
 IDIUse=1 WtCom= 1.00D+00 WtEn= 0.00D+00
 Coeff-Com: -0.947D-06 0.496D-05 0.399D-04 0.172D-05-0.291D-03-0.124D-02
 Coeff-Com:  0.340D-03 0.207D-01-0.366D-01-0.106D+00 0.192D+00 0.931D+00
 Coeff:     -0.947D-06 0.496D-05 0.399D-04 0.172D-05-0.291D-03-0.124D-02
 Coeff:      0.340D-03 0.207D-01-0.366D-01-0.106D+00 0.192D+00 0.931D+00
 Gap=     0.500 Goal=   None    Shift=    0.000
 RMSDP=9.75D-09 MaxDP=2.60D-07 DE=-1.19D-11 OVMax= 6.39D-07

 SCF Done:  E(RHF) =  -389.155294539     A.U. after   12 cycles
            NFock= 12  Conv=0.98D-08     -V/T= 2.0014
 KE= 3.886242396507D+02 PE=-1.931185407778D+03 EE= 6.401302393212D+02
 Leave Link  502 at Fri Sep 17 14:50:33 2021, MaxMem=   524288000 cpu:              26.6 elap:              29.0
 (Enter /opt/gaussian/g16_legacy/l801.exe)
 ExpMin= 1.61D-01 ExpMax= 3.05D+03 ExpMxC= 4.57D+02 IAcc=3 IRadAn=         5 AccDes= 0.00D+00
 HarFok:  IExCor=  205 AccDes= 0.00D+00 IRadAn=         5 IDoV=-2 UseB2=F ITyADJ=14
 ICtDFT= 12500011 ScaDFX=  1.000000  1.000000  1.000000  1.000000
 Largest valence mixing into a core orbital is  1.97D-04
 Largest core mixing into a valence orbital is  3.52D-05
 Range of M.O.s used for correlation:    11   240
 NBasis=   240 NAE=    39 NBE=    39 NFC=    10 NFV=     0
 NROrb=    230 NOA=    29 NOB=    29 NVA=   201 NVB=   201
 Leave Link  801 at Fri Sep 17 14:50:37 2021, MaxMem=   524288000 cpu:               1.6 elap:               3.0
 (Enter /opt/gaussian/g16_legacy/l906.exe)
 Frozen-core derivative calculation, NFC=  10 NFV=   0.
 FulOut=F Deriv=T AODrv=T NAtomX=    28
   MMem=          89  MDisk=          29 MDiskD=          29
  W3Min=     2246400 MinDsk=     2795480 NBas6D=         240
 NBas2D=       29244    NTT=       28920    LW2=     2040000
    MDV=   523629461 MDiskM=       30186 NBas2p=       24099
 Fully direct method using O(ONN) memory.
 IMap=   1   2   3   4   5   6   7   8   9  10  11  12  13  14  15  16  17  18  19  20
 IMap=  21  22  23  24  25  26  27  28  29  30  31  32  33  34  35  36  37  38  39
 JobTyp=1 Pass  1:  I=  11 to  39 NPSUse=  1 ParTrn=F ParDer=F DoDerP=T.
 Spin components of T(2) and E(2):
     alpha-alpha T2 =       0.5711581531D-01 E2=     -0.1637343702D+00
     alpha-beta  T2 =       0.3617472741D+00 E2=     -0.1089194871D+01
     beta-beta   T2 =       0.5711581531D-01 E2=     -0.1637343702D+00
 The integrals were generated   1 times.
 ANorm=    0.1214898722D+01
 E2 =    -0.1416663611D+01 EUMP2 =    -0.39057195814971D+03
 Leave Link  906 at Fri Sep 17 14:54:44 2021, MaxMem=   524288000 cpu:             246.3 elap:             247.3
 (Enter /opt/gaussian/g16_legacy/l1002.exe)
 Minotr:  Closed shell wavefunction.
          Computing MP2/KS-MP2 derivatives.
          Using Z-Vector for PSCF gradient.
          Skipping F1 and S1 gradient terms here.
          IDoAtm=1111111111111111111111111111
          Frozen-core window.
          Direct CPHF calculation.
          Differentiating once with respect to electric field.
                with respect to dipole field.
          Differentiating once with respect to nuclear coordinates.
          Requested convergence is 1.0D-10 RMS, and 1.0D-09 maximum.
          NewPWx=F KeepS1=T KeepF1=T KeepIn=T MapXYZ=F SortEE=F KeepMc=T.
 Keep R1 ints in memory in canonical form, NReq=425201067.
 FoFCou: FMM=F IPFlag=           0 FMFlag=           0 FMFlg1=           0
         NFxFlg=           0 DoJE=F BraDBF=F KetDBF=F FulRan=T
         wScrn=  0.000000 ICntrl=       600 IOpCl=  0 I1Cent=           0 NGrid=           0
         NMat0=    1 NMatS0=  28920 NMatT0=    0 NMatD0=    1 NMtDS0=    0 NMtDT0=    0
 Symmetry not used in FoFCou.
 Two-electron integral symmetry not used.
          MDV=     524288000 using IRadAn=       5.
          Solving linear equations separately, MaxMat=       0.
          There are     1 degrees of freedom in the 1st order CPHF.  IDoFFX=0 NUNeed=     1.
 LinEq1:  Iter=  0 NonCon=     1 RMS=2.55D-03 Max=4.26D-02 NDo=     1
 AX will form     1 AO Fock derivatives at one time.
 LinEq1:  Iter=  1 NonCon=     1 RMS=6.89D-04 Max=1.12D-02 NDo=     1
 LinEq1:  Iter=  2 NonCon=     1 RMS=1.61D-04 Max=4.13D-03 NDo=     1
 LinEq1:  Iter=  3 NonCon=     1 RMS=4.42D-05 Max=5.12D-04 NDo=     1
 LinEq1:  Iter=  4 NonCon=     1 RMS=1.99D-05 Max=8.26D-04 NDo=     1
 LinEq1:  Iter=  5 NonCon=     1 RMS=4.81D-06 Max=8.80D-05 NDo=     1
 LinEq1:  Iter=  6 NonCon=     1 RMS=1.46D-06 Max=2.33D-05 NDo=     1
 LinEq1:  Iter=  7 NonCon=     1 RMS=4.00D-07 Max=4.16D-06 NDo=     1
 LinEq1:  Iter=  8 NonCon=     1 RMS=8.45D-08 Max=1.47D-06 NDo=     1
 LinEq1:  Iter=  9 NonCon=     1 RMS=2.23D-08 Max=5.49D-07 NDo=     1
 LinEq1:  Iter= 10 NonCon=     1 RMS=7.47D-09 Max=1.97D-07 NDo=     1
 LinEq1:  Iter= 11 NonCon=     1 RMS=2.39D-09 Max=7.33D-08 NDo=     1
 LinEq1:  Iter= 12 NonCon=     1 RMS=8.66D-10 Max=1.36D-08 NDo=     1
 LinEq1:  Iter= 13 NonCon=     1 RMS=2.39D-10 Max=3.35D-09 NDo=     1
 LinEq1:  Iter= 14 NonCon=     0 RMS=5.52D-11 Max=6.93D-10 NDo=     1
 Linear equations converged to 1.000D-10 1.000D-09 after    14 iterations.
 End of Minotr F.D. properties file   721 does not exist.
 End of Minotr F.D. properties file   722 does not exist.
 End of Minotr F.D. properties file   788 does not exist.
 Leave Link 1002 at Fri Sep 17 14:55:22 2021, MaxMem=   524288000 cpu:              37.2 elap:              37.7
 (Enter /opt/gaussian/g16_legacy/l601.exe)
 Copying SCF densities to generalized density rwf, IOpCl= 0 IROHF=0.

 **********************************************************************

            Population analysis using the SCF density.

 **********************************************************************

 Orbital symmetries:
       Occupied  (A) (A) (A) (A) (A) (A) (A) (A) (A) (A) (A) (A)
                 (A) (A) (A) (A) (A) (A) (A) (A) (A) (A) (A) (A)
                 (A) (A) (A) (A) (A) (A) (A) (A) (A) (A) (A) (A)
                 (A) (A) (A)
       Virtual   (A) (A) (A) (A) (A) (A) (A) (A) (A) (A) (A) (A)
                 (A) (A) (A) (A) (A) (A) (A) (A) (A) (A) (A) (A)
                 (A) (A) (A) (A) (A) (A) (A) (A) (A) (A) (A) (A)
                 (A) (A) (A) (A) (A) (A) (A) (A) (A) (A) (A) (A)
                 (A) (A) (A) (A) (A) (A) (A) (A) (A) (A) (A) (A)
                 (A) (A) (A) (A) (A) (A) (A) (A) (A) (A) (A) (A)
                 (A) (A) (A) (A) (A) (A) (A) (A) (A) (A) (A) (A)
                 (A) (A) (A) (A) (A) (A) (A) (A) (A) (A) (A) (A)
                 (A) (A) (A) (A) (A) (A) (A) (A) (A) (A) (A) (A)
                 (A) (A) (A) (A) (A) (A) (A) (A) (A) (A) (A) (A)
                 (A) (A) (A) (A) (A) (A) (A) (A) (A) (A) (A) (A)
                 (A) (A) (A) (A) (A) (A) (A) (A) (A) (A) (A) (A)
                 (A) (A) (A) (A) (A) (A) (A) (A) (A) (A) (A) (A)
                 (A) (A) (A) (A) (A) (A) (A) (A) (A) (A) (A) (A)
                 (A) (A) (A) (A) (A) (A) (A) (A) (A) (A) (A) (A)
                 (A) (A) (A) (A) (A) (A) (A) (A) (A) (A) (A) (A)
                 (A) (A) (A) (A) (A) (A) (A) (A) (A)
 The electronic state is 1-A.
 Alpha  occ. eigenvalues --  -11.23059 -11.22492 -11.21994 -11.21920 -11.21894
 Alpha  occ. eigenvalues --  -11.21649 -11.21539 -11.21500 -11.21457 -11.21435
 Alpha  occ. eigenvalues --   -1.10614  -1.08327  -1.01891  -0.98025  -0.93647
 Alpha  occ. eigenvalues --   -0.91774  -0.86737  -0.82690  -0.70608  -0.69411
 Alpha  occ. eigenvalues --   -0.64402  -0.61335  -0.60398  -0.59007  -0.58077
 Alpha  occ. eigenvalues --   -0.56879  -0.55469  -0.55041  -0.53553  -0.51978
 Alpha  occ. eigenvalues --   -0.51779  -0.51260  -0.50451  -0.49763  -0.47237
 Alpha  occ. eigenvalues --   -0.46643  -0.44232  -0.33254  -0.31612
 Alpha virt. eigenvalues --    0.18420   0.19607   0.22268   0.24509   0.24867
 Alpha virt. eigenvalues --    0.27279   0.28582   0.29021   0.30342   0.30570
 Alpha virt. eigenvalues --    0.31452   0.32294   0.32993   0.33605   0.33919
 Alpha virt. eigenvalues --    0.34861   0.36107   0.37174   0.38359   0.39994
 Alpha virt. eigenvalues --    0.40806   0.41938   0.42663   0.44320   0.45309
 Alpha virt. eigenvalues --    0.51884   0.54069   0.61044   0.62385   0.69420
 Alpha virt. eigenvalues --    0.71419   0.71712   0.74322   0.75991   0.76600
 Alpha virt. eigenvalues --    0.77889   0.78836   0.80149   0.80438   0.82525
 Alpha virt. eigenvalues --    0.82863   0.85807   0.89229   0.90311   0.92127
 Alpha virt. eigenvalues --    0.93068   0.94945   0.96558   0.97591   0.99409
 Alpha virt. eigenvalues --    0.99664   1.01112   1.02715   1.04773   1.06343
 Alpha virt. eigenvalues --    1.07246   1.08349   1.08464   1.10884   1.12200
 Alpha virt. eigenvalues --    1.13082   1.13494   1.14139   1.15110   1.15429
 Alpha virt. eigenvalues --    1.15974   1.16405   1.17990   1.18282   1.20090
 Alpha virt. eigenvalues --    1.20925   1.22026   1.22905   1.24887   1.26884
 Alpha virt. eigenvalues --    1.29778   1.39908   1.40848   1.44074   1.45166
 Alpha virt. eigenvalues --    1.46114   1.53923   1.55256   1.57486   1.59005
 Alpha virt. eigenvalues --    1.61320   1.62901   1.65441   1.68692   1.70717
 Alpha virt. eigenvalues --    1.74993   1.83306   1.90944   1.92633   1.95891
 Alpha virt. eigenvalues --    1.98115   2.01341   2.02513   2.04963   2.08420
 Alpha virt. eigenvalues --    2.09275   2.11238   2.11880   2.13546   2.13761
 Alpha virt. eigenvalues --    2.15745   2.17935   2.19180   2.23539   2.27676
 Alpha virt. eigenvalues --    2.27929   2.30154   2.32118   2.34933   2.35556
 Alpha virt. eigenvalues --    2.35637   2.35785   2.39414   2.39796   2.40227
 Alpha virt. eigenvalues --    2.41251   2.41845   2.42900   2.44985   2.45577
 Alpha virt. eigenvalues --    2.47183   2.49011   2.49665   2.49766   2.53203
 Alpha virt. eigenvalues --    2.56183   2.58403   2.60484   2.62609   2.64596
 Alpha virt. eigenvalues --    2.66044   2.67900   2.71567   2.72558   2.74075
 Alpha virt. eigenvalues --    2.76100   2.77695   2.81001   2.82553   2.84074
 Alpha virt. eigenvalues --    2.86961   2.90352   2.92350   2.93716   2.93883
 Alpha virt. eigenvalues --    2.97256   2.98945   3.00896   3.02344   3.04607
 Alpha virt. eigenvalues --    3.06566   3.07047   3.09529   3.11565   3.16237
 Alpha virt. eigenvalues --    3.17177   3.17507   3.19752   3.20509   3.20975
 Alpha virt. eigenvalues --    3.22293   3.25236   3.26469   3.27444   3.37016
 Alpha virt. eigenvalues --    3.39004   3.44382   3.45745   3.55490   3.57314
 Alpha virt. eigenvalues --    3.58495   3.60439   3.67987   3.73335   3.78353
 Alpha virt. eigenvalues --    3.78762   3.80290   3.81206   3.82239   3.82863
 Alpha virt. eigenvalues --    3.83544   3.85729   3.87951   3.89113   3.90868
 Alpha virt. eigenvalues --    3.96053   4.59175   4.62292   4.74494   4.82467
 Alpha virt. eigenvalues --    4.89198   4.92415   4.93233   5.07344   5.10304
 Alpha virt. eigenvalues --    5.16931
          Condensed to atoms (all electrons):
               1          2          3          4          5          6
     1  C    5.000753   0.412397   0.414393   0.339576  -0.058813  -0.003456
     2  H    0.412397   0.583802  -0.030320  -0.045126  -0.004632   0.002508
     3  H    0.414393  -0.030320   0.576692  -0.040664   0.003304  -0.000014
     4  C    0.339576  -0.045126  -0.040664   4.957390   0.350737  -0.043208
     5  C   -0.058813  -0.004632   0.003304   0.350737   4.895128   0.397616
     6  H   -0.003456   0.002508  -0.000014  -0.043208   0.397616   0.593303
     7  H    0.003652   0.000092  -0.000107  -0.041418   0.406584  -0.027586
     8  H   -0.000424  -0.000305  -0.000036  -0.046052   0.399656  -0.035160
     9  C   -0.043516   0.001833  -0.002305   0.696609  -0.045812  -0.000479
    10  H    0.003081  -0.000112   0.000055  -0.036446  -0.006436   0.000245
    11  C   -0.007009   0.000131  -0.002042  -0.050643   0.003398  -0.000113
    12  H    0.000233  -0.000010  -0.000035   0.000512  -0.000102  -0.000004
    13  H    0.000216   0.000029   0.000157  -0.001298  -0.000114   0.000021
    14  H   -0.002038   0.000010  -0.001243  -0.000451   0.000090  -0.000001
    15  C   -0.000105  -0.000032  -0.000001   0.000001  -0.000000   0.000000
    16  H    0.000021  -0.000005  -0.000001  -0.000000   0.000000  -0.000000
    17  H   -0.000002  -0.000002   0.000002   0.000000  -0.000000  -0.000000
    18  H   -0.000004   0.000001   0.000000   0.000000  -0.000000  -0.000000
    19  C   -0.002759   0.000933   0.000602  -0.000035   0.000007  -0.000001
    20  C    0.000487   0.000129  -0.000011  -0.000018  -0.000017  -0.000002
    21  H    0.000080   0.000148  -0.000011  -0.000063   0.000095   0.000005
    22  H   -0.000041   0.000012  -0.000000   0.000001  -0.000000   0.000000
    23  H    0.000071  -0.000066  -0.000000  -0.000002   0.000000   0.000000
    24  C   -0.062593  -0.000488  -0.001372   0.006103  -0.000076   0.000000
    25  H   -0.000350   0.000186   0.001131  -0.000118  -0.000002   0.000000
    26  C    0.325376  -0.042896  -0.041385  -0.056896  -0.000803   0.000024
    27  H   -0.040026  -0.002358   0.004046  -0.002268  -0.000487   0.000076
    28  H   -0.045284   0.004395  -0.002680  -0.001368   0.000304   0.000006
               7          8          9         10         11         12
     1  C    0.003652  -0.000424  -0.043516   0.003081  -0.007009   0.000233
     2  H    0.000092  -0.000305   0.001833  -0.000112   0.000131  -0.000010
     3  H   -0.000107  -0.000036  -0.002305   0.000055  -0.002042  -0.000035
     4  C   -0.041418  -0.046052   0.696609  -0.036446  -0.050643   0.000512
     5  C    0.406584   0.399656  -0.045812  -0.006436   0.003398  -0.000102
     6  H   -0.027586  -0.035160  -0.000479   0.000245  -0.000113  -0.000004
     7  H    0.570242  -0.028120  -0.002764   0.002176   0.000140  -0.000008
     8  H   -0.028120   0.598064  -0.000962   0.000130  -0.000102   0.000015
     9  C   -0.002764  -0.000962   4.940047   0.404560   0.338337  -0.042716
    10  H    0.002176   0.000130   0.404560   0.559869  -0.043628  -0.002624
    11  C    0.000140  -0.000102   0.338337  -0.043628   4.903479   0.402920
    12  H   -0.000008   0.000015  -0.042716  -0.002624   0.402920   0.585823
    13  H   -0.000004  -0.000005  -0.044542  -0.000244   0.400270  -0.033318
    14  H    0.000004   0.000001  -0.041985   0.003343   0.408030  -0.029452
    15  C    0.000000  -0.000000  -0.000000   0.000000   0.000000  -0.000000
    16  H   -0.000000   0.000000   0.000000  -0.000000  -0.000000   0.000000
    17  H   -0.000000  -0.000000   0.000000   0.000000  -0.000000   0.000000
    18  H    0.000000   0.000000  -0.000000   0.000000  -0.000000  -0.000000
    19  C   -0.000000   0.000017  -0.000002   0.000000   0.000000   0.000000
    20  C    0.000000  -0.000029  -0.000000  -0.000000  -0.000000  -0.000000
    21  H   -0.000001   0.000222  -0.000001   0.000000  -0.000000   0.000000
    22  H    0.000000  -0.000000   0.000000   0.000000   0.000000  -0.000000
    23  H   -0.000000  -0.000001   0.000000  -0.000000   0.000000   0.000000
    24  C    0.000002  -0.000082  -0.000010   0.000002  -0.000022  -0.000002
    25  H    0.000000  -0.000000   0.000009  -0.000000  -0.000002  -0.000000
    26  C   -0.000094   0.000832  -0.003333  -0.000120   0.000493   0.000079
    27  H   -0.000024  -0.000581   0.000498   0.000002  -0.000024   0.000000
    28  H   -0.000006   0.000016   0.000947  -0.000032   0.000105  -0.000059
              13         14         15         16         17         18
     1  C    0.000216  -0.002038  -0.000105   0.000021  -0.000002  -0.000004
     2  H    0.000029   0.000010  -0.000032  -0.000005  -0.000002   0.000001
     3  H    0.000157  -0.001243  -0.000001  -0.000001   0.000002   0.000000
     4  C   -0.001298  -0.000451   0.000001  -0.000000   0.000000   0.000000
     5  C   -0.000114   0.000090  -0.000000   0.000000  -0.000000  -0.000000
     6  H    0.000021  -0.000001   0.000000  -0.000000  -0.000000  -0.000000
     7  H   -0.000004   0.000004   0.000000  -0.000000  -0.000000   0.000000
     8  H   -0.000005   0.000001  -0.000000   0.000000  -0.000000   0.000000
     9  C   -0.044542  -0.041985  -0.000000   0.000000   0.000000  -0.000000
    10  H   -0.000244   0.003343   0.000000  -0.000000   0.000000   0.000000
    11  C    0.400270   0.408030   0.000000  -0.000000  -0.000000  -0.000000
    12  H   -0.033318  -0.029452  -0.000000   0.000000   0.000000  -0.000000
    13  H    0.585299  -0.027458   0.000000  -0.000000  -0.000000   0.000000
    14  H   -0.027458   0.575181  -0.000000  -0.000000   0.000000   0.000000
    15  C    0.000000  -0.000000   4.903421   0.396998   0.405377   0.399279
    16  H   -0.000000  -0.000000   0.396998   0.594221  -0.027350  -0.034889
    17  H   -0.000000   0.000000   0.405377  -0.027350   0.568065  -0.027575
    18  H    0.000000   0.000000   0.399279  -0.034889  -0.027575   0.593096
    19  C   -0.000000   0.000001   0.351815  -0.044207  -0.040405  -0.045808
    20  C    0.000000   0.000000  -0.065363  -0.002146   0.003697  -0.001091
    21  H   -0.000000   0.000000   0.003706  -0.000072  -0.000109  -0.000024
    22  H    0.000000   0.000000  -0.001678  -0.000367  -0.000080   0.002542
    23  H   -0.000000  -0.000000  -0.003425   0.002838   0.000012  -0.000508
    24  C    0.000002   0.000034  -0.044524  -0.000621  -0.002345  -0.001113
    25  H   -0.000000   0.000035  -0.006707   0.000224   0.002204   0.000153
    26  C   -0.000045  -0.000174   0.003141  -0.000086   0.000141  -0.000123
    27  H   -0.000000  -0.000005   0.000062  -0.000003   0.000006   0.000004
    28  H    0.000018   0.000114  -0.000098  -0.000002  -0.000011   0.000012
              19         20         21         22         23         24
     1  C   -0.002759   0.000487   0.000080  -0.000041   0.000071  -0.062593
     2  H    0.000933   0.000129   0.000148   0.000012  -0.000066  -0.000488
     3  H    0.000602  -0.000011  -0.000011  -0.000000  -0.000000  -0.001372
     4  C   -0.000035  -0.000018  -0.000063   0.000001  -0.000002   0.006103
     5  C    0.000007  -0.000017   0.000095  -0.000000   0.000000  -0.000076
     6  H   -0.000001  -0.000002   0.000005   0.000000   0.000000   0.000000
     7  H   -0.000000   0.000000  -0.000001   0.000000  -0.000000   0.000002
     8  H    0.000017  -0.000029   0.000222  -0.000000  -0.000001  -0.000082
     9  C   -0.000002  -0.000000  -0.000001   0.000000   0.000000  -0.000010
    10  H    0.000000  -0.000000   0.000000   0.000000  -0.000000   0.000002
    11  C    0.000000  -0.000000  -0.000000   0.000000   0.000000  -0.000022
    12  H    0.000000  -0.000000   0.000000  -0.000000   0.000000  -0.000002
    13  H   -0.000000   0.000000  -0.000000   0.000000  -0.000000   0.000002
    14  H    0.000001   0.000000   0.000000   0.000000  -0.000000   0.000034
    15  C    0.351815  -0.065363   0.003706  -0.001678  -0.003425  -0.044524
    16  H   -0.044207  -0.002146  -0.000072  -0.000367   0.002838  -0.000621
    17  H   -0.040405   0.003697  -0.000109  -0.000080   0.000012  -0.002345
    18  H   -0.045808  -0.001091  -0.000024   0.002542  -0.000508  -0.001113
    19  C    4.920202   0.348915  -0.036966  -0.043920  -0.043842   0.695507
    20  C    0.348915   4.906845   0.405947   0.398568   0.402430  -0.043609
    21  H   -0.036966   0.405947   0.570710  -0.026867  -0.029645  -0.002888
    22  H   -0.043920   0.398568  -0.026867   0.583074  -0.033090  -0.000744
    23  H   -0.043842   0.402430  -0.029645  -0.033090   0.585586   0.000409
    24  C    0.695507  -0.043609  -0.002888  -0.000744   0.000409   4.962284
    25  H   -0.035976   0.003361   0.000053  -0.000124  -0.000112   0.403002
    26  C   -0.048857  -0.007184  -0.002349   0.000191   0.000276   0.341677
    27  H    0.000560  -0.001878  -0.001474   0.000040  -0.000035  -0.043147
    28  H    0.000972   0.000145   0.000041   0.000033  -0.000012  -0.044003
              25         26         27         28
     1  C   -0.000350   0.325376  -0.040026  -0.045284
     2  H    0.000186  -0.042896  -0.002358   0.004395
     3  H    0.001131  -0.041385   0.004046  -0.002680
     4  C   -0.000118  -0.056896  -0.002268  -0.001368
     5  C   -0.000002  -0.000803  -0.000487   0.000304
     6  H    0.000000   0.000024   0.000076   0.000006
     7  H    0.000000  -0.000094  -0.000024  -0.000006
     8  H   -0.000000   0.000832  -0.000581   0.000016
     9  C    0.000009  -0.003333   0.000498   0.000947
    10  H   -0.000000  -0.000120   0.000002  -0.000032
    11  C   -0.000002   0.000493  -0.000024   0.000105
    12  H   -0.000000   0.000079   0.000000  -0.000059
    13  H   -0.000000  -0.000045  -0.000000   0.000018
    14  H    0.000035  -0.000174  -0.000005   0.000114
    15  C   -0.006707   0.003141   0.000062  -0.000098
    16  H    0.000224  -0.000086  -0.000003  -0.000002
    17  H    0.002204   0.000141   0.000006  -0.000011
    18  H    0.000153  -0.000123   0.000004   0.000012
    19  C   -0.035976  -0.048857   0.000560   0.000972
    20  C    0.003361  -0.007184  -0.001878   0.000145
    21  H    0.000053  -0.002349  -0.001474   0.000041
    22  H   -0.000124   0.000191   0.000040   0.000033
    23  H   -0.000112   0.000276  -0.000035  -0.000012
    24  C    0.403002   0.341677  -0.043147  -0.044003
    25  H    0.558292  -0.041955   0.003305  -0.003531
    26  C   -0.041955   4.978469   0.414994   0.415023
    27  H    0.003305   0.414994   0.579631  -0.029789
    28  H   -0.003531   0.415023  -0.029789   0.581175
 Mulliken charges:
               1
     1  C   -0.233918
     2  H    0.119746
     3  H    0.121846
     4  C    0.015145
     5  C   -0.339627
     6  H    0.116218
     7  H    0.117239
     8  H    0.112904
     9  C   -0.154413
    10  H    0.116178
    11  C   -0.353718
    12  H    0.118750
    13  H    0.121017
    14  H    0.115964
    15  C   -0.341867
    16  H    0.115448
    17  H    0.118375
    18  H    0.116047
    19  C    0.023246
    20  C   -0.349175
    21  H    0.119461
    22  H    0.122450
    23  H    0.119116
    24  C   -0.161385
    25  H    0.116923
    26  C   -0.234414
    27  H    0.118875
    28  H    0.123568
 Sum of Mulliken charges =  -0.00000
 Mulliken charges with hydrogens summed into heavy atoms:
               1
     1  C    0.007675
     4  C    0.015145
     5  C    0.006735
     9  C   -0.038235
    11  C    0.002013
    15  C    0.008003
    19  C    0.023246
    20  C    0.011852
    24  C   -0.044462
    26  C    0.008029
 Electronic spatial extent (au):  <R**2>=           2545.0020
 Charge=             -0.0000 electrons
 Dipole moment (field-independent basis, Debye):
    X=             -0.3492    Y=              0.1465    Z=              0.0262  Tot=              0.3796
 Quadrupole moment (field-independent basis, Debye-Ang):
   XX=            -63.8837   YY=            -63.9186   ZZ=            -67.2163
   XY=             -0.9685   XZ=             -0.9082   YZ=             -0.2405
 Traceless Quadrupole moment (field-independent basis, Debye-Ang):
   XX=              1.1225   YY=              1.0876   ZZ=             -2.2101
   XY=             -0.9685   XZ=             -0.9082   YZ=             -0.2405
 Octapole moment (field-independent basis, Debye-Ang**2):
  XXX=             -0.9337  YYY=             -2.8101  ZZZ=              0.8881  XYY=              0.2819
  XXY=              1.7925  XXZ=             -2.7160  XZZ=             -1.8076  YZZ=              1.3751
  YYZ=              0.5293  XYZ=              0.3802
 Hexadecapole moment (field-independent basis, Debye-Ang**3):
 XXXX=          -2708.1562 YYYY=           -641.3569 ZZZZ=           -161.4648 XXXY=             -7.6843
 XXXZ=            -11.8625 YYYX=              8.1774 YYYZ=             -1.4902 ZZZX=             -2.8105
 ZZZY=              1.9637 XXYY=           -565.0453 XXZZ=           -492.0547 YYZZ=           -130.8329
 XXYZ=             -3.0907 YYXZ=             -1.7780 ZZXY=             -8.1520
 N-N= 5.132756342670D+02 E-N=-1.931185406764D+03  KE= 3.886242396507D+02
 No NMR shielding tensors so no spin-rotation constants.
 Leave Link  601 at Fri Sep 17 14:55:23 2021, MaxMem=   524288000 cpu:               0.4 elap:               0.8
 (Enter /opt/gaussian/g16_legacy/l701.exe)
 ... and contract with generalized density number  2.
 Compute integral first derivatives.
 Leave Link  701 at Fri Sep 17 14:55:23 2021, MaxMem=   524288000 cpu:               0.4 elap:               0.6
 (Enter /opt/gaussian/g16_legacy/l702.exe)
 L702 exits ... SP integral derivatives will be done elsewhere.
 Leave Link  702 at Fri Sep 17 14:55:24 2021, MaxMem=   524288000 cpu:               0.0 elap:               0.1
 (Enter /opt/gaussian/g16_legacy/l703.exe)
 Integral derivatives from FoFJK, PRISM(SPDF).
 Compute integral first derivatives, UseDBF=F ICtDFT=           0.
 Calling FoFJK, ICntrl=  10002127 FMM=F ISym2X=0 I1Cent= 0 IOpClX= 0 NMat=1 NMatS=1 NMatT=0.
 FoFJK:  IHMeth= 1 ICntrl=10002127 DoSepK=F KAlg= 0 I1Cent=           0 FoldK=F
 IRaf=         0 NMat=       1 IRICut=       1 DoRegI=T DoRafI=F ISym2E= 0 IDoP0=0 IntGTp=1.
 FoFCou: FMM=F IPFlag=           0 FMFlag=      100000 FMFlg1=         800
         NFxFlg=           0 DoJE=F BraDBF=F KetDBF=F FulRan=T
         wScrn=  0.000000 ICntrl=  10002127 IOpCl=  0 I1Cent=           0 NGrid=           0
         NMat0=    1 NMatS0=      1 NMatT0=    0 NMatD0=    1 NMtDS0=    0 NMtDT0=    0
 Symmetry not used in FoFCou.
 Leave Link  703 at Fri Sep 17 14:56:00 2021, MaxMem=   524288000 cpu:              35.6 elap:              35.8
 (Enter /opt/gaussian/g16_legacy/l716.exe)
 Dipole        =-1.00120359D-01 3.49147156D-02 3.63215981D-03
 ***** Axes restored to original set *****
 -------------------------------------------------------------------
 Center     Atomic                   Forces (Hartrees/Bohr)
 Number     Number              X              Y              Z
 -------------------------------------------------------------------
      1        6          -0.007903023   -0.004007750   -0.001948238
      2        1          -0.000616159    0.003610185    0.002522987
      3        1           0.000006990    0.003876680    0.000791005
      4        6          -0.002431724   -0.003738180   -0.004245231
      5        6          -0.002875793    0.000933213   -0.000572819
      6        1           0.000932053    0.002917013    0.001334571
      7        1           0.002795987   -0.001352781    0.002805287
      8        1           0.000747530   -0.002078101   -0.002503371
      9        6           0.002046168    0.003128343    0.000154349
     10        1           0.003368288    0.000745307   -0.000881472
     11        6           0.000680429   -0.001021481    0.002497393
     12        1           0.000580376   -0.003305645   -0.001011974
     13        1          -0.000119947    0.001137803    0.003211142
     14        1          -0.001750510    0.000269465   -0.002905198
     15        6          -0.001047515   -0.002408655    0.002136894
     16        1           0.001206942    0.002750802    0.001822034
     17        1          -0.000895605    0.002703268   -0.003270902
     18        1           0.000981504   -0.002306263   -0.002244724
     19        6          -0.001246034   -0.005007092    0.001781590
     20        6          -0.003627534    0.001486050   -0.002461260
     21        1           0.001373198   -0.000733819    0.003131744
     22        1           0.000992257   -0.001840944   -0.002342363
     23        1           0.000222399    0.002225354    0.002957140
     24        6          -0.002011502    0.004492770    0.001404112
     25        1           0.002737964    0.000656785   -0.001851895
     26        6           0.006332124    0.002223253    0.003820303
     27        1           0.000338012   -0.003169387   -0.000588848
     28        1          -0.000816877   -0.002186192   -0.003542254
 -------------------------------------------------------------------
 Cartesian Forces:  Max     0.007903023 RMS     0.002539086
 Leave Link  716 at Fri Sep 17 14:56:00 2021, MaxMem=   524288000 cpu:               0.1 elap:               0.3
 (Enter /opt/gaussian/g16_legacy/l103.exe)

 GradGradGradGradGradGradGradGradGradGradGradGradGradGradGradGradGradGrad
 Berny optimization.
 FormGI is forming the generalized inverse of G from B-inverse, IUseBI=4.
 Internal  Forces:  Max     0.004112008 RMS     0.001894391
 Search for a local minimum.
 Step number   1 out of a maximum of  138
 All quantities printed in internal units (Hartrees-Bohrs-Radians)
 RMS Force = .18944D-02 SwitMx=.10000D-02 MixMth= 1
 Mixed Optimization -- RFO/linear search
 Second derivative matrix not updated -- first step.
 ITU=  0
     Eigenvalues ---    0.00342   0.00570   0.00667   0.00680   0.00693
     Eigenvalues ---    0.00715   0.00820   0.01218   0.01287   0.01570
     Eigenvalues ---    0.01642   0.02779   0.02785   0.04014   0.04133
     Eigenvalues ---    0.05350   0.05403   0.06981   0.07038   0.07088
     Eigenvalues ---    0.07093   0.07265   0.07301   0.07348   0.07506
     Eigenvalues ---    0.09278   0.09365   0.12769   0.12846   0.15999
     Eigenvalues ---    0.15999   0.16000   0.16000   0.16000   0.16000
     Eigenvalues ---    0.16000   0.16000   0.16000   0.16000   0.16000
     Eigenvalues ---    0.16000   0.16000   0.16000   0.21860   0.21867
     Eigenvalues ---    0.22000   0.22000   0.24993   0.24996   0.24998
     Eigenvalues ---    0.24999   0.29235   0.30870   0.31607   0.31702
     Eigenvalues ---    0.31803   0.31973   0.32808   0.33860   0.33936
     Eigenvalues ---    0.34070   0.34185   0.34213   0.34230   0.34248
     Eigenvalues ---    0.34256   0.34256   0.34259   0.34263   0.34292
     Eigenvalues ---    0.34292   0.34334   0.34540   0.34563   0.34791
     Eigenvalues ---    0.34840   0.55484   0.55589
 RFO step:  Lambda=-2.86990683D-03 EMin= 3.42060181D-03
 Linear search not attempted -- first point.
 Iteration  1 RMS(Cart)=  0.04041380 RMS(Int)=  0.00070793
 Iteration  2 RMS(Cart)=  0.00101851 RMS(Int)=  0.00015644
 Iteration  3 RMS(Cart)=  0.00000056 RMS(Int)=  0.00015644
 ITry= 1 IFail=0 DXMaxC= 1.34D-01 DCOld= 1.00D+10 DXMaxT= 3.00D-01 DXLimC= 3.00D+00 Rises=F
 Variable       Old X    -DE/DX   Delta X   Delta X   Delta X     New X
                                 (Linear)    (Quad)   (Total)
    R1        2.07567  -0.00312   0.00000  -0.00914  -0.00914   2.06653
    R2        2.07212  -0.00290   0.00000  -0.00844  -0.00844   2.06368
    R3        2.86262  -0.00348   0.00000  -0.01118  -0.01118   2.85144
    R4        2.89514   0.00159   0.00000   0.00538   0.00538   2.90052
    R5        2.84869  -0.00062   0.00000  -0.00196  -0.00196   2.84673
    R6        2.54704  -0.00397   0.00000  -0.00712  -0.00712   2.53992
    R7        2.06895  -0.00209   0.00000  -0.00606  -0.00606   2.06289
    R8        2.06972  -0.00379   0.00000  -0.01098  -0.01098   2.05874
    R9        2.06840  -0.00172   0.00000  -0.00497  -0.00497   2.06342
   R10        2.05935  -0.00222   0.00000  -0.00631  -0.00631   2.05304
   R11        2.82690   0.00311   0.00000   0.00939   0.00939   2.83629
   R12        2.06900  -0.00269   0.00000  -0.00777  -0.00777   2.06122
   R13        2.06771  -0.00160   0.00000  -0.00463  -0.00463   2.06307
   R14        2.06391  -0.00299   0.00000  -0.00859  -0.00859   2.05532
   R15        2.06900  -0.00195   0.00000  -0.00566  -0.00566   2.06334
   R16        2.06943  -0.00394   0.00000  -0.01142  -0.01142   2.05801
   R17        2.06913  -0.00199   0.00000  -0.00576  -0.00576   2.06337
   R18        2.84692  -0.00076   0.00000  -0.00238  -0.00238   2.84454
   R19        2.84193  -0.00049   0.00000  -0.00151  -0.00151   2.84042
   R20        2.54612  -0.00317   0.00000  -0.00567  -0.00567   2.54046
   R21        2.06428  -0.00293   0.00000  -0.00840  -0.00840   2.05587
   R22        2.06888  -0.00190   0.00000  -0.00549  -0.00549   2.06339
   R23        2.07018  -0.00274   0.00000  -0.00795  -0.00795   2.06223
   R24        2.06015  -0.00204   0.00000  -0.00581  -0.00581   2.05434
   R25        2.84506  -0.00140   0.00000  -0.00436  -0.00436   2.84070
   R26        2.06840  -0.00239   0.00000  -0.00691  -0.00691   2.06149
   R27        2.07438  -0.00274   0.00000  -0.00802  -0.00802   2.06636
    A1        1.83007   0.00205   0.00000   0.02211   0.02194   1.85200
    A2        1.90125  -0.00008   0.00000   0.00132   0.00132   1.90257
    A3        1.91823  -0.00275   0.00000  -0.02412  -0.02415   1.89408
    A4        1.93125  -0.00018   0.00000   0.00556   0.00559   1.93684
    A5        1.91980  -0.00201   0.00000  -0.01376  -0.01380   1.90600
    A6        1.95881   0.00287   0.00000   0.00940   0.00944   1.96824
    A7        2.00711   0.00174   0.00000   0.00718   0.00664   2.01374
    A8        2.17214  -0.00411   0.00000  -0.01588  -0.01640   2.15575
    A9        2.10373   0.00239   0.00000   0.00986   0.00930   2.11303
   A10        1.92475   0.00166   0.00000   0.00907   0.00909   1.93384
   A11        1.95917  -0.00265   0.00000  -0.01329  -0.01325   1.94591
   A12        1.92849   0.00228   0.00000   0.01214   0.01217   1.94065
   A13        1.87755   0.00112   0.00000   0.01037   0.01040   1.88795
   A14        1.89484  -0.00307   0.00000  -0.02469  -0.02468   1.87016
   A15        1.87688   0.00055   0.00000   0.00556   0.00560   1.88248
   A16        2.06924  -0.00195   0.00000  -0.01342  -0.01345   2.05579
   A17        2.22587  -0.00182   0.00000  -0.00811  -0.00813   2.21774
   A18        1.98795   0.00377   0.00000   0.02171   0.02169   2.00964
   A19        1.91004   0.00237   0.00000   0.01554   0.01549   1.92553
   A20        1.91728   0.00386   0.00000   0.02274   0.02270   1.93999
   A21        1.98085  -0.00284   0.00000  -0.01748  -0.01740   1.96345
   A22        1.88706  -0.00305   0.00000  -0.01868  -0.01885   1.86820
   A23        1.87281   0.00045   0.00000   0.00447   0.00454   1.87735
   A24        1.89318  -0.00097   0.00000  -0.00768  -0.00759   1.88560
   A25        1.87923   0.00091   0.00000   0.00931   0.00935   1.88858
   A26        1.89494  -0.00314   0.00000  -0.02550  -0.02549   1.86946
   A27        1.92488   0.00222   0.00000   0.01246   0.01249   1.93737
   A28        1.87876   0.00092   0.00000   0.00795   0.00798   1.88674
   A29        1.96059  -0.00277   0.00000  -0.01386  -0.01383   1.94676
   A30        1.92344   0.00175   0.00000   0.00879   0.00882   1.93225
   A31        1.99476   0.00146   0.00000   0.00579   0.00577   2.00053
   A32        2.10565   0.00188   0.00000   0.00747   0.00744   2.11309
   A33        2.18273  -0.00333   0.00000  -0.01315  -0.01317   2.16956
   A34        1.97930  -0.00212   0.00000  -0.00959  -0.00957   1.96973
   A35        1.92167   0.00225   0.00000   0.01140   0.01142   1.93309
   A36        1.92079   0.00001   0.00000  -0.00085  -0.00084   1.91996
   A37        1.88491   0.00021   0.00000   0.00319   0.00322   1.88813
   A38        1.86364   0.00193   0.00000   0.01652   0.01653   1.88017
   A39        1.89064  -0.00238   0.00000  -0.02146  -0.02144   1.86919
   A40        2.06735  -0.00179   0.00000  -0.01215  -0.01255   2.05480
   A41        2.22791  -0.00179   0.00000  -0.00786  -0.00827   2.21964
   A42        1.98779   0.00360   0.00000   0.02083   0.02041   2.00820
   A43        1.94437   0.00332   0.00000   0.01377   0.01382   1.95818
   A44        1.93096  -0.00168   0.00000  -0.01704  -0.01711   1.91385
   A45        1.91627  -0.00336   0.00000  -0.02309  -0.02328   1.89299
   A46        1.94475  -0.00129   0.00000  -0.00730  -0.00724   1.93750
   A47        1.88218   0.00135   0.00000   0.02206   0.02218   1.90435
   A48        1.84178   0.00155   0.00000   0.01192   0.01166   1.85344
    D1       -0.64491   0.00074   0.00000  -0.02466  -0.02443  -0.66934
    D2        2.47472   0.00170   0.00000   0.03657   0.03639   2.51111
    D3       -2.64800  -0.00158   0.00000  -0.05507  -0.05488  -2.70288
    D4        0.47163  -0.00063   0.00000   0.00616   0.00594   0.47757
    D5        1.48339  -0.00090   0.00000  -0.04807  -0.04788   1.43551
    D6       -1.68016   0.00005   0.00000   0.01315   0.01294  -1.66722
    D7       -1.04072   0.00078   0.00000   0.01201   0.01192  -1.02880
    D8        1.13278   0.00028   0.00000   0.00002  -0.00010   1.13268
    D9       -3.12454  -0.00081   0.00000  -0.00916  -0.00907  -3.13361
   D10        0.96565   0.00054   0.00000   0.01711   0.01711   0.98276
   D11        3.13915   0.00005   0.00000   0.00513   0.00509  -3.13894
   D12       -1.11816  -0.00105   0.00000  -0.00406  -0.00388  -1.12205
   D13        3.12386   0.00087   0.00000   0.02088   0.02082  -3.13851
   D14       -0.98583   0.00038   0.00000   0.00889   0.00880  -0.97703
   D15        1.04004  -0.00072   0.00000  -0.00030  -0.00017   1.03987
   D16        1.03805  -0.00011   0.00000   0.03759   0.03790   1.07595
[...]
                 (A) (A) (A) (A) (A) (A) (A) (A) (A) (A) (A) (A)
                 (A) (A) (A) (A) (A) (A) (A) (A) (A) (A) (A) (A)
                 (A) (A) (A) (A) (A) (A) (A) (A) (A) (A) (A) (A)
                 (A) (A) (A) (A) (A) (A) (A) (A) (A) (A) (A) (A)
                 (A) (A) (A) (A) (A) (A) (A) (A) (A) (A) (A) (A)
                 (A) (A) (A) (A) (A) (A) (A) (A) (A) (A) (A) (A)
                 (A) (A) (A) (A) (A) (A) (A) (A) (A) (A) (A) (A)
                 (A) (A) (A) (A) (A) (A) (A) (A) (A) (A) (A) (A)
                 (A) (A) (A) (A) (A) (A) (A) (A) (A) (A) (A) (A)
                 (A) (A) (A) (A) (A) (A) (A) (A) (A) (A) (A) (A)
                 (A) (A) (A) (A) (A) (A) (A) (A) (A) (A) (A) (A)
                 (A) (A) (A) (A) (A) (A) (A) (A) (A)
 The electronic state is 1-A.
 Alpha  occ. eigenvalues --  -11.23028 -11.22456 -11.21863 -11.21726 -11.21721
 Alpha  occ. eigenvalues --  -11.21541 -11.21497 -11.21449 -11.21393 -11.21358
 Alpha  occ. eigenvalues --   -1.10803  -1.08495  -1.01828  -0.98138  -0.93839
 Alpha  occ. eigenvalues --   -0.91936  -0.86954  -0.82861  -0.70567  -0.69489
 Alpha  occ. eigenvalues --   -0.64754  -0.61539  -0.60720  -0.58828  -0.58414
 Alpha  occ. eigenvalues --   -0.56814  -0.55405  -0.54979  -0.53298  -0.52217
 Alpha  occ. eigenvalues --   -0.51714  -0.51214  -0.50653  -0.50166  -0.47383
 Alpha  occ. eigenvalues --   -0.46917  -0.44458  -0.33328  -0.31563
 Alpha virt. eigenvalues --    0.18100   0.19932   0.22053   0.24536   0.24955
 Alpha virt. eigenvalues --    0.27424   0.28601   0.28877   0.30353   0.30694
 Alpha virt. eigenvalues --    0.31966   0.32601   0.32969   0.33726   0.34466
 Alpha virt. eigenvalues --    0.35524   0.36421   0.37370   0.38662   0.39972
 Alpha virt. eigenvalues --    0.40998   0.42095   0.42777   0.44262   0.45477
 Alpha virt. eigenvalues --    0.51938   0.54227   0.61292   0.62632   0.69521
 Alpha virt. eigenvalues --    0.71676   0.71855   0.74127   0.75627   0.76300
 Alpha virt. eigenvalues --    0.77310   0.78587   0.80192   0.80428   0.82510
 Alpha virt. eigenvalues --    0.83060   0.85963   0.89706   0.90634   0.91906
 Alpha virt. eigenvalues --    0.92727   0.94246   0.96733   0.97890   0.99038
 Alpha virt. eigenvalues --    0.99663   1.01316   1.02330   1.04636   1.06421
 Alpha virt. eigenvalues --    1.06946   1.08561   1.08610   1.11036   1.12563
 Alpha virt. eigenvalues --    1.13528   1.14242   1.14315   1.15516   1.15561
 Alpha virt. eigenvalues --    1.15995   1.16443   1.18511   1.18881   1.20423
 Alpha virt. eigenvalues --    1.21361   1.22874   1.23837   1.26678   1.27279
 Alpha virt. eigenvalues --    1.29587   1.40505   1.41229   1.45131   1.46302
 Alpha virt. eigenvalues --    1.47303   1.54539   1.56916   1.57904   1.58162
 Alpha virt. eigenvalues --    1.61580   1.62900   1.65166   1.67986   1.70099
 Alpha virt. eigenvalues --    1.73688   1.82808   1.91105   1.92024   1.96649
 Alpha virt. eigenvalues --    1.98629   2.01394   2.02264   2.04662   2.08570
 Alpha virt. eigenvalues --    2.09659   2.11023   2.11867   2.13286   2.14333
 Alpha virt. eigenvalues --    2.15615   2.17830   2.19386   2.23464   2.28302
 Alpha virt. eigenvalues --    2.29342   2.30634   2.33018   2.35331   2.35655
 Alpha virt. eigenvalues --    2.35947   2.36091   2.39306   2.40246   2.40800
 Alpha virt. eigenvalues --    2.42218   2.43338   2.43738   2.45452   2.46063
 Alpha virt. eigenvalues --    2.47468   2.49490   2.50160   2.50478   2.53353
 Alpha virt. eigenvalues --    2.56171   2.59443   2.61268   2.62977   2.65059
 Alpha virt. eigenvalues --    2.67062   2.68311   2.71449   2.72617   2.74255
 Alpha virt. eigenvalues --    2.76086   2.77474   2.80595   2.82947   2.83712
 Alpha virt. eigenvalues --    2.86556   2.90534   2.92645   2.94406   2.94575
 Alpha virt. eigenvalues --    2.97681   2.98672   3.01242   3.02716   3.05048
 Alpha virt. eigenvalues --    3.06983   3.08131   3.09712   3.12652   3.17075
 Alpha virt. eigenvalues --    3.17580   3.18813   3.20184   3.20611   3.22303
 Alpha virt. eigenvalues --    3.23445   3.25849   3.26685   3.27777   3.38376
 Alpha virt. eigenvalues --    3.40097   3.45764   3.46979   3.56086   3.58279
 Alpha virt. eigenvalues --    3.59222   3.61997   3.68641   3.74872   3.78914
 Alpha virt. eigenvalues --    3.79698   3.81279   3.82681   3.83341   3.84006
 Alpha virt. eigenvalues --    3.84104   3.86511   3.88184   3.89137   3.91421
 Alpha virt. eigenvalues --    3.97579   4.59401   4.62757   4.74521   4.82179
 Alpha virt. eigenvalues --    4.89167   4.92294   4.93230   5.07407   5.10903
 Alpha virt. eigenvalues --    5.17835
          Condensed to atoms (all electrons):
               1          2          3          4          5          6
     1  C    5.003997   0.412745   0.413411   0.339222  -0.057161  -0.003571
     2  H    0.412745   0.584867  -0.028359  -0.045647  -0.004621   0.002410
     3  H    0.413411  -0.028359   0.576310  -0.039654   0.003215  -0.000037
     4  C    0.339222  -0.045647  -0.039654   4.951262   0.352880  -0.041600
     5  C   -0.057161  -0.004621   0.003215   0.352880   4.891657   0.397676
     6  H   -0.003571   0.002410  -0.000037  -0.041600   0.397676   0.591603
     7  H    0.003819   0.000114  -0.000111  -0.042642   0.407271  -0.026708
     8  H   -0.000045  -0.000557  -0.000012  -0.045807   0.400489  -0.037732
     9  C   -0.046575   0.002347  -0.001941   0.696859  -0.046080  -0.000465
    10  H    0.003280  -0.000115   0.000029  -0.037937  -0.006573   0.000218
    11  C   -0.007739   0.000152  -0.002699  -0.049997   0.003357  -0.000104
    12  H    0.000295  -0.000013  -0.000067  -0.000357  -0.000097  -0.000004
    13  H    0.000167   0.000018   0.000160  -0.000541  -0.000105   0.000017
    14  H   -0.002166   0.000038  -0.001508  -0.000577   0.000102   0.000001
    15  C   -0.000102  -0.000045  -0.000001   0.000002  -0.000000   0.000000
    16  H    0.000024  -0.000008  -0.000001  -0.000000   0.000000  -0.000000
    17  H   -0.000003  -0.000002   0.000002   0.000000  -0.000000  -0.000000
    18  H   -0.000005   0.000002   0.000000   0.000000  -0.000000   0.000000
    19  C   -0.004098   0.001256   0.000622  -0.000004   0.000007  -0.000001
    20  C    0.000549   0.000191  -0.000016  -0.000019  -0.000025  -0.000001
    21  H   -0.000058   0.000094  -0.000011  -0.000061   0.000096  -0.000000
    22  H   -0.000041   0.000017   0.000000   0.000001  -0.000000   0.000000
    23  H    0.000120  -0.000099  -0.000001  -0.000004   0.000001   0.000000
    24  C   -0.062090   0.000057  -0.001230   0.006210  -0.000074   0.000003
    25  H   -0.000091   0.000171   0.001049  -0.000105  -0.000002   0.000000
    26  C    0.331129  -0.045730  -0.042384  -0.055684  -0.001011   0.000075
    27  H   -0.042601  -0.002340   0.004316  -0.002245  -0.000436   0.000058
    28  H   -0.046716   0.004692  -0.002896  -0.001441   0.000280   0.000005
               7          8          9         10         11         12
     1  C    0.003819  -0.000045  -0.046575   0.003280  -0.007739   0.000295
     2  H    0.000114  -0.000557   0.002347  -0.000115   0.000152  -0.000013
     3  H   -0.000111  -0.000012  -0.001941   0.000029  -0.002699  -0.000067
     4  C   -0.042642  -0.045807   0.696859  -0.037937  -0.049997  -0.000357
     5  C    0.407271   0.400489  -0.046080  -0.006573   0.003357  -0.000097
     6  H   -0.026708  -0.037732  -0.000465   0.000218  -0.000104  -0.000004
     7  H    0.568320  -0.027516  -0.002982   0.002347   0.000133  -0.000005
     8  H   -0.027516   0.599593  -0.000883   0.000143  -0.000102   0.000016
     9  C   -0.002982  -0.000883   4.938271   0.404337   0.340912  -0.041711
    10  H    0.002347   0.000143   0.404337   0.559262  -0.041317  -0.001238
    11  C    0.000133  -0.000102   0.340912  -0.041317   4.898015   0.401889
    12  H   -0.000005   0.000016  -0.041711  -0.001238   0.401889   0.585671
    13  H   -0.000006  -0.000004  -0.041774  -0.001163   0.401438  -0.035520
    14  H    0.000005  -0.000002  -0.043875   0.003330   0.409145  -0.029082
    15  C    0.000000  -0.000000  -0.000000   0.000000   0.000000  -0.000000
    16  H   -0.000000   0.000000   0.000000  -0.000000  -0.000000   0.000000
    17  H   -0.000000  -0.000000  -0.000000   0.000000  -0.000000  -0.000000
    18  H    0.000000   0.000000  -0.000000   0.000000  -0.000000  -0.000000
    19  C   -0.000000   0.000021  -0.000003   0.000000   0.000000   0.000000
    20  C    0.000000  -0.000043  -0.000000  -0.000000  -0.000000  -0.000000
    21  H   -0.000001   0.000361  -0.000001   0.000000  -0.000000   0.000000
    22  H    0.000000  -0.000000   0.000000   0.000000   0.000000  -0.000000
    23  H   -0.000000  -0.000001   0.000000  -0.000000   0.000000   0.000000
    24  C    0.000002  -0.000104   0.000036   0.000002  -0.000027  -0.000007
    25  H    0.000000  -0.000000   0.000007  -0.000000  -0.000002  -0.000000
    26  C   -0.000108   0.000669  -0.004455  -0.000120   0.000509   0.000149
    27  H   -0.000040  -0.000466   0.000648   0.000001  -0.000030  -0.000000
    28  H   -0.000004  -0.000003   0.001236  -0.000038   0.000051  -0.000081
              13         14         15         16         17         18
     1  C    0.000167  -0.002166  -0.000102   0.000024  -0.000003  -0.000005
     2  H    0.000018   0.000038  -0.000045  -0.000008  -0.000002   0.000002
     3  H    0.000160  -0.001508  -0.000001  -0.000001   0.000002   0.000000
     4  C   -0.000541  -0.000577   0.000002  -0.000000   0.000000   0.000000
     5  C   -0.000105   0.000102  -0.000000   0.000000  -0.000000  -0.000000
     6  H    0.000017   0.000001   0.000000  -0.000000  -0.000000   0.000000
     7  H   -0.000006   0.000005   0.000000  -0.000000  -0.000000   0.000000
     8  H   -0.000004  -0.000002  -0.000000   0.000000  -0.000000   0.000000
     9  C   -0.041774  -0.043875  -0.000000   0.000000  -0.000000  -0.000000
    10  H   -0.001163   0.003330   0.000000  -0.000000   0.000000   0.000000
    11  C    0.401438   0.409145   0.000000  -0.000000  -0.000000  -0.000000
    12  H   -0.035520  -0.029082  -0.000000   0.000000  -0.000000  -0.000000
    13  H    0.584890  -0.027817   0.000000  -0.000000  -0.000000   0.000000
    14  H   -0.027817   0.577276  -0.000000  -0.000000   0.000000   0.000000
    15  C    0.000000  -0.000000   4.900552   0.398175   0.406165   0.398829
    16  H   -0.000000  -0.000000   0.398175   0.594540  -0.026667  -0.037823
    17  H   -0.000000   0.000000   0.406165  -0.026667   0.565965  -0.026546
    18  H    0.000000   0.000000   0.398829  -0.037823  -0.026546   0.593696
    19  C   -0.000000   0.000001   0.353472  -0.043823  -0.041665  -0.044307
    20  C    0.000000   0.000000  -0.065053  -0.001990   0.003789  -0.001177
    21  H   -0.000000   0.000000   0.003758  -0.000068  -0.000115  -0.000032
    22  H    0.000000   0.000000  -0.002204  -0.000448  -0.000055   0.002752
    23  H   -0.000000  -0.000000  -0.002670   0.002769  -0.000029  -0.000486
    24  C    0.000002   0.000064  -0.044228  -0.000470  -0.002577  -0.001279
    25  H   -0.000000   0.000025  -0.006998   0.000180   0.002368   0.000188
    26  C   -0.000037  -0.000554   0.003136  -0.000071   0.000144  -0.000128
    27  H   -0.000000  -0.000004   0.000050  -0.000004   0.000007   0.000006
    28  H    0.000025   0.000016  -0.000091  -0.000002  -0.000009   0.000009
              19         20         21         22         23         24
     1  C   -0.004098   0.000549  -0.000058  -0.000041   0.000120  -0.062090
     2  H    0.001256   0.000191   0.000094   0.000017  -0.000099   0.000057
     3  H    0.000622  -0.000016  -0.000011   0.000000  -0.000001  -0.001230
     4  C   -0.000004  -0.000019  -0.000061   0.000001  -0.000004   0.006210
     5  C    0.000007  -0.000025   0.000096  -0.000000   0.000001  -0.000074
     6  H   -0.000001  -0.000001  -0.000000   0.000000   0.000000   0.000003
     7  H   -0.000000   0.000000  -0.000001   0.000000  -0.000000   0.000002
     8  H    0.000021  -0.000043   0.000361  -0.000000  -0.000001  -0.000104
     9  C   -0.000003  -0.000000  -0.000001   0.000000   0.000000   0.000036
    10  H    0.000000  -0.000000   0.000000   0.000000  -0.000000   0.000002
    11  C    0.000000  -0.000000  -0.000000   0.000000   0.000000  -0.000027
    12  H    0.000000  -0.000000   0.000000  -0.000000   0.000000  -0.000007
    13  H   -0.000000   0.000000  -0.000000   0.000000  -0.000000   0.000002
    14  H    0.000001   0.000000   0.000000   0.000000  -0.000000   0.000064
    15  C    0.353472  -0.065053   0.003758  -0.002204  -0.002670  -0.044228
    16  H   -0.043823  -0.001990  -0.000068  -0.000448   0.002769  -0.000470
    17  H   -0.041665   0.003789  -0.000115  -0.000055  -0.000029  -0.002577
    18  H   -0.044307  -0.001177  -0.000032   0.002752  -0.000486  -0.001279
    19  C    4.915064   0.350683  -0.037727  -0.043642  -0.043358   0.696285
    20  C    0.350683   4.904567   0.406928   0.400306   0.401034  -0.044156
    21  H   -0.037727   0.406928   0.570628  -0.026774  -0.028092  -0.003150
    22  H   -0.043642   0.400306  -0.026774   0.585123  -0.035758  -0.000377
    23  H   -0.043358   0.401034  -0.028092  -0.035758   0.586876  -0.000024
    24  C    0.696285  -0.044156  -0.003150  -0.000377  -0.000024   4.960935
    25  H   -0.038332   0.003541   0.000051  -0.000120  -0.000122   0.403960
    26  C   -0.049354  -0.007949  -0.002567   0.000140   0.000348   0.340992
    27  H    0.000417  -0.002567  -0.001998   0.000086  -0.000063  -0.044503
    28  H    0.001446   0.000178   0.000062   0.000024  -0.000014  -0.041006
              25         26         27         28
     1  C   -0.000091   0.331129  -0.042601  -0.046716
     2  H    0.000171  -0.045730  -0.002340   0.004692
     3  H    0.001049  -0.042384   0.004316  -0.002896
     4  C   -0.000105  -0.055684  -0.002245  -0.001441
     5  C   -0.000002  -0.001011  -0.000436   0.000280
     6  H    0.000000   0.000075   0.000058   0.000005
     7  H    0.000000  -0.000108  -0.000040  -0.000004
     8  H   -0.000000   0.000669  -0.000466  -0.000003
     9  C    0.000007  -0.004455   0.000648   0.001236
    10  H   -0.000000  -0.000120   0.000001  -0.000038
    11  C   -0.000002   0.000509  -0.000030   0.000051
    12  H   -0.000000   0.000149  -0.000000  -0.000081
    13  H   -0.000000  -0.000037  -0.000000   0.000025
    14  H    0.000025  -0.000554  -0.000004   0.000016
    15  C   -0.006998   0.003136   0.000050  -0.000091
    16  H    0.000180  -0.000071  -0.000004  -0.000002
    17  H    0.002368   0.000144   0.000007  -0.000009
    18  H    0.000188  -0.000128   0.000006   0.000009
    19  C   -0.038332  -0.049354   0.000417   0.001446
    20  C    0.003541  -0.007949  -0.002567   0.000178
    21  H    0.000051  -0.002567  -0.001998   0.000062
    22  H   -0.000120   0.000140   0.000086   0.000024
    23  H   -0.000122   0.000348  -0.000063  -0.000014
    24  C    0.403960   0.340992  -0.044503  -0.041006
    25  H    0.558056  -0.040061   0.003267  -0.003353
    26  C   -0.040061   4.977839   0.416251   0.413228
    27  H    0.003267   0.416251   0.582598  -0.028540
    28  H   -0.003353   0.413228  -0.028540   0.579538
 Mulliken charges:
               1
     1  C   -0.235696
     2  H    0.118365
     3  H    0.121814
     4  C    0.017883
     5  C   -0.340845
     6  H    0.118156
     7  H    0.118112
     8  H    0.111985
     9  C   -0.153908
    10  H    0.115552
    11  C   -0.353585
    12  H    0.120162
    13  H    0.120250
    14  H    0.115581
    15  C   -0.342746
    16  H    0.115688
    17  H    0.119226
    18  H    0.116299
    19  C    0.027041
    20  C   -0.348771
    21  H    0.118676
    22  H    0.120971
    23  H    0.119572
    24  C   -0.163245
    25  H    0.116321
    26  C   -0.234395
    27  H    0.118132
    28  H    0.123405
 Sum of Mulliken charges =  -0.00000
 Mulliken charges with hydrogens summed into heavy atoms:
               1
     1  C    0.004483
     4  C    0.017883
     5  C    0.007409
     9  C   -0.038356
    11  C    0.002408
    15  C    0.008468
    19  C    0.027041
    20  C    0.010448
    24  C   -0.046924
    26  C    0.007142
 Electronic spatial extent (au):  <R**2>=           2498.6154
 Charge=             -0.0000 electrons
 Dipole moment (field-independent basis, Debye):
    X=             -0.3626    Y=              0.1699    Z=              0.0498  Tot=              0.4035
 Quadrupole moment (field-independent basis, Debye-Ang):
   XX=            -63.7582   YY=            -63.7112   ZZ=            -67.3994
   XY=             -1.0617   XZ=             -1.2177   YZ=             -0.3674
 Traceless Quadrupole moment (field-independent basis, Debye-Ang):
   XX=              1.1981   YY=              1.2451   ZZ=             -2.4431
   XY=             -1.0617   XZ=             -1.2177   YZ=             -0.3674
 Octapole moment (field-independent basis, Debye-Ang**2):
  XXX=             -2.8323  YYY=             -2.8562  ZZZ=              0.8775  XYY=              0.7382
  XXY=              1.7309  XXZ=             -2.8066  XZZ=             -1.5462  YZZ=              1.4376
  YYZ=              0.7861  XYZ=              0.4940
 Hexadecapole moment (field-independent basis, Debye-Ang**3):
 XXXX=          -2633.5325 YYYY=           -638.9546 ZZZZ=           -166.0437 XXXY=            -10.5034
 XXXZ=            -13.5605 YYYX=              7.0823 YYYZ=             -1.6737 ZZZX=             -4.0400
 ZZZY=              2.3776 XXYY=           -550.6716 XXZZ=           -483.2673 YYZZ=           -131.1157
 XXYZ=             -4.5757 YYXZ=             -2.5312 ZZXY=             -7.7340
 N-N= 5.156965511668D+02 E-N=-1.936106468088D+03  KE= 3.887456766860D+02
 No NMR shielding tensors so no spin-rotation constants.
 Leave Link  601 at Fri Sep 17 16:38:55 2021, MaxMem=   524288000 cpu:               0.3 elap:               0.3
 (Enter /opt/gaussian/g16_legacy/l9999.exe)
 1\1\GINC-TRUENO91\FOpt\RMP2-FC\6-31G(d,p)\C10H18\JRAMOS\17-Sep-2021\0\
 \#p opt mp2/6-31g(d,p)\\Conformer number 2733. Energy MM = 23.287 kcal
 /mol\\0,1\C,-0.6399772439,-0.6601372254,-0.47911451\H,0.0592774679,-0.
 849035425,-1.2983681526\H,-0.7252619357,-1.5981530099,0.0722041253\C,-
 1.9707276144,-0.231362427,-1.0439624195\C,-1.9014275428,0.5737340446,-
 2.3134133928\H,-1.4708164112,-0.0172314811,-3.1247057937\H,-2.88752665
 55,0.9156203046,-2.6252254681\H,-1.2634235361,1.4513963489,-2.18703881
 05\C,-3.1520485853,-0.4898723723,-0.4528396776\H,-4.0491297302,-0.1099
 972216,-0.9340300228\C,-3.378632568,-1.2532215051,0.8166009342\H,-3.88
 85028274,-0.6307238863,1.5541377751\H,-4.0146523275,-2.1228377206,0.64
 08614615\H,-2.4498482072,-1.6005083748,1.2630650185\C,3.7764649482,-0.
 1915298542,1.1428205491\H,4.373472343,-0.7452960988,0.4147331844\H,3.5
 541497794,-0.854505383,1.9775536217\H,4.4029994614,0.6241157392,1.5108
 787368\C,2.5203189144,0.34222833,0.5112869082\C,2.7467044665,1.2722033
 939,-0.6483458448\H,1.8219975329,1.6097746591,-1.1093244689\H,3.310589
 6307,2.1516924086,-0.3295751656\H,3.3434544189,0.7761637304,-1.4167541
 541\C,1.3081914472,-0.0073675562,0.9816214037\H,1.278113383,-0.7059265
 58,1.8142147027\C,-0.0280095425,0.4109949745,0.4441539848\H,0.04254810
 17,1.3553644112,-0.0971121259\H,-0.7183971675,0.5845177543,1.273677601
 \\Version=EM64L-G16RevA.03\State=1-A\HF=-389.1568792\MP2=-390.573553\R
 MSD=2.372e-09\RMSF=3.802e-06\Dipole=0.1086923,0.0261723,-0.025487\PG=C
 01 [X(C10H18)]\\@


 IF YOU WANT TO LEARN FROM THE THEORETICAL PHYSICISTS ABOUT THE
 METHODS WHICH THEY USE, I ADVISE YOU TO FOLLOW THIS PRINCIPLE VERY STRICTLY:
 DON'T LISTEN TO THEIR WORDS; PAY ATTENTION, INSTEAD, TO THEIR ACTIONS.
 -- A.EINSTEIN, 1934
 Job cpu time:       0 days  1 hours 48 minutes 43.5 seconds.
 Elapsed time:       0 days  1 hours 49 minutes  2.7 seconds.
 File lengths (MBytes):  RWF=     32 Int=      0 D2E=      0 Chk=      7 Scr=      1
 Normal termination of Gaussian 16 at Fri Sep 17 16:38:56 2021.
