 Entering Gaussian System, Link 0=/opt/gaussian/g16_legacy/g16
 Input=01-IsoP_2566_gaussian.com
 Output=01-IsoP_2566_gaussian.log
 Initial command:
 /opt/gaussian/g16_legacy/l1.exe "/scratch-local/jramos/2661360/Gau-11539.inp" -scrdir="/scratch-local/jramos/2661360/"
 Entering Link 1 = /opt/gaussian/g16_legacy/l1.exe PID=     11540.
  
 Copyright (c) 1988,1990,1992,1993,1995,1998,2003,2009,2016,
            Gaussian, Inc.  All Rights Reserved.
  
 This is part of the Gaussian(R) 16 program.  It is based on
 the Gaussian(R) 09 system (copyright 2009, Gaussian, Inc.),
 the Gaussian(R) 03 system (copyright 2003, Gaussian, Inc.),
 the Gaussian(R) 98 system (copyright 1998, Gaussian, Inc.),
 the Gaussian(R) 94 system (copyright 1995, Gaussian, Inc.),
 the Gaussian 92(TM) system (copyright 1992, Gaussian, Inc.),
 the Gaussian 90(TM) system (copyright 1990, Gaussian, Inc.),
 the Gaussian 88(TM) system (copyright 1988, Gaussian, Inc.),
 the Gaussian 86(TM) system (copyright 1986, Carnegie Mellon
 University), and the Gaussian 82(TM) system (copyright 1983,
 Carnegie Mellon University). Gaussian is a federally registered
 trademark of Gaussian, Inc.
  
 This software contains proprietary and confidential information,
 including trade secrets, belonging to Gaussian, Inc.
  
 This software is provided under written license and may be
 used, copied, transmitted, or stored only in accord with that
 written license.
  
 The following legend is applicable only to US Government
 contracts under FAR:
  
                    RESTRICTED RIGHTS LEGEND
  
 Use, reproduction and disclosure by the US Government is
 subject to restrictions as set forth in subparagraphs (a)
 and (c) of the Commercial Computer Software - Restricted
 Rights clause in FAR 52.227-19.
  
 Gaussian, Inc.
 340 Quinnipiac St., Bldg. 40, Wallingford CT 06492
  
  
 ---------------------------------------------------------------
 Warning -- This program may not be used in any manner that
 competes with the business of Gaussian, Inc. or will provide
 assistance to any competitor of Gaussian, Inc.  The licensee
 of this program is prohibited from giving any competitor of
 Gaussian, Inc. access to this program.  By using this program,
 the user acknowledges that Gaussian, Inc. is engaged in the
 business of creating and licensing software in the field of
 computational chemistry and represents and warrants to the
 licensee that it is not a competitor of Gaussian, Inc. and that
 it will not use this program in any manner prohibited above.
 ---------------------------------------------------------------
  

 Cite this work as:
 Gaussian 16, Revision A.03,
 M. J. Frisch, G. W. Trucks, H. B. Schlegel, G. E. Scuseria, 
 M. A. Robb, J. R. Cheeseman, G. Scalmani, V. Barone, 
 G. A. Petersson, H. Nakatsuji, X. Li, M. Caricato, A. V. Marenich, 
 J. Bloino, B. G. Janesko, R. Gomperts, B. Mennucci, H. P. Hratchian, 
 J. V. Ortiz, A. F. Izmaylov, J. L. Sonnenberg, D. Williams-Young, 
 F. Ding, F. Lipparini, F. Egidi, J. Goings, B. Peng, A. Petrone, 
 T. Henderson, D. Ranasinghe, V. G. Zakrzewski, J. Gao, N. Rega, 
 G. Zheng, W. Liang, M. Hada, M. Ehara, K. Toyota, R. Fukuda, 
 J. Hasegawa, M. Ishida, T. Nakajima, Y. Honda, O. Kitao, H. Nakai, 
 T. Vreven, K. Throssell, J. A. Montgomery, Jr., J. E. Peralta, 
 F. Ogliaro, M. J. Bearpark, J. J. Heyd, E. N. Brothers, K. N. Kudin, 
 V. N. Staroverov, T. A. Keith, R. Kobayashi, J. Normand, 
 K. Raghavachari, A. P. Rendell, J. C. Burant, S. S. Iyengar, 
 J. Tomasi, M. Cossi, J. M. Millam, M. Klene, C. Adamo, R. Cammi, 
 J. W. Ochterski, R. L. Martin, K. Morokuma, O. Farkas, 
 J. B. Foresman, and D. J. Fox, Gaussian, Inc., Wallingford CT, 2016.
 
 ******************************************
 Gaussian 16:  EM64L-G16RevA.03 25-Dec-2016
                17-Sep-2021 
 ******************************************
 %chk=01-IsoP_2566_gaussian.chk
 %nproc=1
 Will use up to    1 processors via shared memory.
 %mem=4000Mb
 ---------------------
 #p opt mp2/6-31g(d,p)
 ---------------------
 1/18=20,19=15,38=1/1,3;
 2/9=110,12=2,17=6,18=5,40=1/2;
 3/5=1,6=6,7=101,11=9,25=1,30=1,71=1/1,2,3;
 4//1;
 5/5=2,38=5/2;
 8/6=4,10=2/1;
 9/15=2,16=-3/6;
 10/5=1/2;
 6/7=2,8=2,9=2,10=2/1;
 7/12=2/1,2,3,16;
 1/18=20,19=15/3(2);
 2/9=110/2;
 99//99;
 2/9=110/2;
 3/5=1,6=6,7=101,11=9,25=1,30=1,71=1/1,2,3;
 4/5=5,16=3,69=1/1;
 5/5=2,38=5/2;
 8/6=4,10=2/1;
 9/15=2,16=-3/6;
 10/5=1/2;
 7/12=2/1,2,3,16;
 1/18=20,19=15/3(-8);
 2/9=110/2;
 6/7=2,8=2,9=2,10=2/1;
 99//99;
 Leave Link    1 at Fri Sep 17 14:21:49 2021, MaxMem=   524288000 cpu:               0.0 elap:               0.1
 (Enter /opt/gaussian/g16_legacy/l101.exe)
 --------------------------------------------------
 Conformer number 2566. Energy MM = 23.242 kcal/mol
 --------------------------------------------------
 Symbolic Z-matrix:
 Charge =  0 Multiplicity = 1
 C                     0.9805    0.4898   -0.4971 
 H                     1.1527    1.41     -1.0716 
 H                     0.9457    0.8145    0.5497 
 C                     2.1411   -0.4573   -0.7228 
 C                     2.7117   -0.4471   -2.1178 
 H                     3.073     0.5545   -2.3728 
 H                     1.9479   -0.738    -2.8459 
 H                     3.5528   -1.1399   -2.227 
 C                     2.6723   -1.2501    0.2289 
 H                     3.5228   -1.8795   -0.0319 
 C                     2.2171   -1.4021    1.6459 
 H                     2.9826   -1.0155    2.3255 
 H                     1.2758   -0.8905    1.8585 
 H                     2.0683   -2.4636    1.8689 
 C                    -2.404    -0.1554    1.477 
 H                    -2.4222    0.3861    2.429 
 H                    -1.5255   -0.8042    1.5 
 H                    -3.293    -0.7923    1.4261 
 C                    -2.3989    0.8176    0.3303 
 C                    -3.5039    1.8403    0.3805 
 H                    -3.474     2.5274   -0.4717 
 H                    -3.4255    2.4395    1.2935 
 H                    -4.4797    1.3435    0.3723 
 C                    -1.5001    0.8261   -0.6735 
 H                    -1.587     1.5947   -1.4417 
 C                    -0.3612   -0.1334   -0.8951 
 H                    -0.5183   -1.0744   -0.3579 
 H                    -0.3512   -0.4007   -1.9594 
 
 ITRead=  0  0  0  0  0  0  0  0  0  0  0  0  0  0  0  0  0  0  0  0
 ITRead=  0  0  0  0  0  0  0  0
 MicOpt= -1 -1 -1 -1 -1 -1 -1 -1 -1 -1 -1 -1 -1 -1 -1 -1 -1 -1 -1 -1
 MicOpt= -1 -1 -1 -1 -1 -1 -1 -1
 NAtoms=     28 NQM=       28 NQMF=       0 NMMI=      0 NMMIF=      0
                NMic=       0 NMicF=      0.
                    Isotopes and Nuclear Properties:
 (Nuclear quadrupole moments (NQMom) in fm**2, nuclear magnetic moments (NMagM)
  in nuclear magnetons)

  Atom         1           2           3           4           5           6           7           8           9          10
 IAtWgt=          12           1           1          12          12           1           1           1          12           1
 AtmWgt=  12.0000000   1.0078250   1.0078250  12.0000000  12.0000000   1.0078250   1.0078250   1.0078250  12.0000000   1.0078250
 NucSpn=           0           1           1           0           0           1           1           1           0           1
 AtZEff=  -0.0000000  -0.0000000  -0.0000000  -0.0000000  -0.0000000  -0.0000000  -0.0000000  -0.0000000  -0.0000000  -0.0000000
 NQMom=    0.0000000   0.0000000   0.0000000   0.0000000   0.0000000   0.0000000   0.0000000   0.0000000   0.0000000   0.0000000
 NMagM=    0.0000000   2.7928460   2.7928460   0.0000000   0.0000000   2.7928460   2.7928460   2.7928460   0.0000000   2.7928460
 AtZNuc=   6.0000000   1.0000000   1.0000000   6.0000000   6.0000000   1.0000000   1.0000000   1.0000000   6.0000000   1.0000000

  Atom        11          12          13          14          15          16          17          18          19          20
 IAtWgt=          12           1           1           1          12           1           1           1          12          12
 AtmWgt=  12.0000000   1.0078250   1.0078250   1.0078250  12.0000000   1.0078250   1.0078250   1.0078250  12.0000000  12.0000000
 NucSpn=           0           1           1           1           0           1           1           1           0           0
 AtZEff=  -0.0000000  -0.0000000  -0.0000000  -0.0000000  -0.0000000  -0.0000000  -0.0000000  -0.0000000  -0.0000000  -0.0000000
 NQMom=    0.0000000   0.0000000   0.0000000   0.0000000   0.0000000   0.0000000   0.0000000   0.0000000   0.0000000   0.0000000
 NMagM=    0.0000000   2.7928460   2.7928460   2.7928460   0.0000000   2.7928460   2.7928460   2.7928460   0.0000000   0.0000000
 AtZNuc=   6.0000000   1.0000000   1.0000000   1.0000000   6.0000000   1.0000000   1.0000000   1.0000000   6.0000000   6.0000000

  Atom        21          22          23          24          25          26          27          28
 IAtWgt=           1           1           1          12           1          12           1           1
 AtmWgt=   1.0078250   1.0078250   1.0078250  12.0000000   1.0078250  12.0000000   1.0078250   1.0078250
 NucSpn=           1           1           1           0           1           0           1           1
 AtZEff=  -0.0000000  -0.0000000  -0.0000000  -0.0000000  -0.0000000  -0.0000000  -0.0000000  -0.0000000
 NQMom=    0.0000000   0.0000000   0.0000000   0.0000000   0.0000000   0.0000000   0.0000000   0.0000000
 NMagM=    2.7928460   2.7928460   2.7928460   0.0000000   2.7928460   0.0000000   2.7928460   2.7928460
 AtZNuc=   1.0000000   1.0000000   1.0000000   6.0000000   1.0000000   6.0000000   1.0000000   1.0000000
 Leave Link  101 at Fri Sep 17 14:21:50 2021, MaxMem=   524288000 cpu:               0.1 elap:               0.1
 (Enter /opt/gaussian/g16_legacy/l103.exe)

 GradGradGradGradGradGradGradGradGradGradGradGradGradGradGradGradGradGrad
 Berny optimization.
 Initialization pass.
                           ----------------------------
                           !    Initial Parameters    !
                           ! (Angstroms and Degrees)  !
 --------------------------                            --------------------------
 ! Name  Definition              Value          Derivative Info.                !
 --------------------------------------------------------------------------------
 ! R1    R(1,2)                  1.0984         estimate D2E/DX2                !
 ! R2    R(1,3)                  1.0966         estimate D2E/DX2                !
 ! R3    R(1,4)                  1.5149         estimate D2E/DX2                !
 ! R4    R(1,26)                 1.532          estimate D2E/DX2                !
 ! R5    R(4,5)                  1.5072         estimate D2E/DX2                !
 ! R6    R(4,9)                  1.3478         estimate D2E/DX2                !
 ! R7    R(5,6)                  1.0949         estimate D2E/DX2                !
 ! R8    R(5,7)                  1.0946         estimate D2E/DX2                !
 ! R9    R(5,8)                  1.0951         estimate D2E/DX2                !
 ! R10   R(9,10)                 1.0897         estimate D2E/DX2                !
 ! R11   R(9,11)                 1.4961         estimate D2E/DX2                !
 ! R12   R(11,12)                1.0942         estimate D2E/DX2                !
 ! R13   R(11,13)                1.0922         estimate D2E/DX2                !
 ! R14   R(11,14)                1.0948         estimate D2E/DX2                !
 ! R15   R(15,16)                1.0954         estimate D2E/DX2                !
 ! R16   R(15,17)                1.0924         estimate D2E/DX2                !
 ! R17   R(15,18)                1.0948         estimate D2E/DX2                !
 ! R18   R(15,19)                1.5039         estimate D2E/DX2                !
 ! R19   R(19,20)                1.5065         estimate D2E/DX2                !
 ! R20   R(19,24)                1.3474         estimate D2E/DX2                !
 ! R21   R(20,21)                1.0951         estimate D2E/DX2                !
 ! R22   R(20,22)                1.0949         estimate D2E/DX2                !
 ! R23   R(20,23)                1.095          estimate D2E/DX2                !
 ! R24   R(24,25)                1.0902         estimate D2E/DX2                !
 ! R25   R(24,26)                1.5056         estimate D2E/DX2                !
 ! R26   R(26,27)                1.0949         estimate D2E/DX2                !
 ! R27   R(26,28)                1.0974         estimate D2E/DX2                !
 ! A1    A(2,1,3)              104.8452         estimate D2E/DX2                !
 ! A2    A(2,1,4)              109.0098         estimate D2E/DX2                !
 ! A3    A(2,1,26)             110.0122         estimate D2E/DX2                !
 ! A4    A(3,1,4)              110.5891         estimate D2E/DX2                !
 ! A5    A(3,1,26)             109.9177         estimate D2E/DX2                !
 ! A6    A(4,1,26)             112.206          estimate D2E/DX2                !
 ! A7    A(1,4,5)              115.0684         estimate D2E/DX2                !
 ! A8    A(1,4,9)              124.3684         estimate D2E/DX2                !
 ! A9    A(5,4,9)              120.5528         estimate D2E/DX2                !
 ! A10   A(4,5,6)              110.2843         estimate D2E/DX2                !
 ! A11   A(4,5,7)              110.468          estimate D2E/DX2                !
 ! A12   A(4,5,8)              112.2572         estimate D2E/DX2                !
 ! A13   A(6,5,7)              108.5699         estimate D2E/DX2                !
 ! A14   A(6,5,8)              107.5807         estimate D2E/DX2                !
 ! A15   A(7,5,8)              107.5461         estimate D2E/DX2                !
 ! A16   A(4,9,10)             118.5788         estimate D2E/DX2                !
 ! A17   A(4,9,11)             127.493          estimate D2E/DX2                !
 ! A18   A(10,9,11)            113.9203         estimate D2E/DX2                !
 ! A19   A(9,11,12)            109.8467         estimate D2E/DX2                !
 ! A20   A(9,11,13)            113.5151         estimate D2E/DX2                !
 ! A21   A(9,11,14)            109.4376         estimate D2E/DX2                !
 ! A22   A(12,11,13)           108.4532         estimate D2E/DX2                !
 ! A23   A(12,11,14)           108.1276         estimate D2E/DX2                !
 ! A24   A(13,11,14)           107.2992         estimate D2E/DX2                !
 ! A25   A(16,15,17)           106.779          estimate D2E/DX2                !
 ! A26   A(16,15,18)           108.331          estimate D2E/DX2                !
 ! A27   A(16,15,19)           110.0538         estimate D2E/DX2                !
 ! A28   A(17,15,18)           107.9691         estimate D2E/DX2                !
 ! A29   A(17,15,19)           113.4286         estimate D2E/DX2                !
 ! A30   A(18,15,19)           110.1022         estimate D2E/DX2                !
 ! A31   A(15,19,20)           114.2882         estimate D2E/DX2                !
 ! A32   A(15,19,24)           125.0566         estimate D2E/DX2                !
 ! A33   A(20,19,24)           120.6524         estimate D2E/DX2                !
 ! A34   A(19,20,21)           112.3328         estimate D2E/DX2                !
 ! A35   A(19,20,22)           110.2913         estimate D2E/DX2                !
 ! A36   A(19,20,23)           110.206          estimate D2E/DX2                !
 ! A37   A(21,20,22)           107.6733         estimate D2E/DX2                !
 ! A38   A(21,20,23)           107.6477         estimate D2E/DX2                !
 ! A39   A(22,20,23)           108.5631         estimate D2E/DX2                !
 ! A40   A(19,24,25)           118.4403         estimate D2E/DX2                !
 ! A41   A(19,24,26)           127.6052         estimate D2E/DX2                !
 ! A42   A(25,24,26)           113.9472         estimate D2E/DX2                !
 ! A43   A(1,26,24)            111.408          estimate D2E/DX2                !
 ! A44   A(1,26,27)            110.3541         estimate D2E/DX2                !
 ! A45   A(1,26,28)            110.0637         estimate D2E/DX2                !
 ! A46   A(24,26,27)           111.5287         estimate D2E/DX2                !
 ! A47   A(24,26,28)           107.75           estimate D2E/DX2                !
 ! A48   A(27,26,28)           105.5343         estimate D2E/DX2                !
 ! D1    D(2,1,4,5)            -36.646          estimate D2E/DX2                !
 ! D2    D(2,1,4,9)            142.1797         estimate D2E/DX2                !
 ! D3    D(3,1,4,5)           -151.4111         estimate D2E/DX2                !
 ! D4    D(3,1,4,9)             27.4146         estimate D2E/DX2                !
 ! D5    D(26,1,4,5)            85.4673         estimate D2E/DX2                !
 ! D6    D(26,1,4,9)           -95.707          estimate D2E/DX2                !
 ! D7    D(2,1,26,24)          -58.0255         estimate D2E/DX2                !
 ! D8    D(2,1,26,27)          177.5124         estimate D2E/DX2                !
 ! D9    D(2,1,26,28)           61.4339         estimate D2E/DX2                !
 ! D10   D(3,1,26,24)           56.9349         estimate D2E/DX2                !
 ! D11   D(3,1,26,27)          -67.5272         estimate D2E/DX2                !
 ! D12   D(3,1,26,28)          176.3942         estimate D2E/DX2                !
 ! D13   D(4,1,26,24)         -179.5665         estimate D2E/DX2                !
 ! D14   D(4,1,26,27)           55.9714         estimate D2E/DX2                !
 ! D15   D(4,1,26,28)          -60.1072         estimate D2E/DX2                !
 ! D16   D(1,4,5,6)             59.4937         estimate D2E/DX2                !
 ! D17   D(1,4,5,7)            -60.5293         estimate D2E/DX2                !
 ! D18   D(1,4,5,8)            179.4411         estimate D2E/DX2                !
 ! D19   D(9,4,5,6)           -119.3807         estimate D2E/DX2                !
 ! D20   D(9,4,5,7)            120.5963         estimate D2E/DX2                !
 ! D21   D(9,4,5,8)              0.5667         estimate D2E/DX2                !
 ! D22   D(1,4,9,10)          -178.6013         estimate D2E/DX2                !
 ! D23   D(1,4,9,11)             2.4908         estimate D2E/DX2                !
 ! D24   D(5,4,9,10)             0.1635         estimate D2E/DX2                !
 ! D25   D(5,4,9,11)          -178.7444         estimate D2E/DX2                !
 ! D26   D(4,9,11,12)         -113.6878         estimate D2E/DX2                !
 ! D27   D(4,9,11,13)            7.9165         estimate D2E/DX2                !
 ! D28   D(4,9,11,14)          127.7477         estimate D2E/DX2                !
 ! D29   D(10,9,11,12)          67.3613         estimate D2E/DX2                !
 ! D30   D(10,9,11,13)        -171.0343         estimate D2E/DX2                !
 ! D31   D(10,9,11,14)         -51.2032         estimate D2E/DX2                !
 ! D32   D(16,15,19,20)        -52.79           estimate D2E/DX2                !
 ! D33   D(16,15,19,24)        126.6004         estimate D2E/DX2                !
 ! D34   D(17,15,19,20)       -172.3349         estimate D2E/DX2                !
 ! D35   D(17,15,19,24)          7.0555         estimate D2E/DX2                !
 ! D36   D(18,15,19,20)         66.5587         estimate D2E/DX2                !
 ! D37   D(18,15,19,24)       -114.0509         estimate D2E/DX2                !
 ! D38   D(15,19,20,21)       -179.6241         estimate D2E/DX2                !
 ! D39   D(15,19,20,22)         60.256          estimate D2E/DX2                !
 ! D40   D(15,19,20,23)        -59.5954         estimate D2E/DX2                !
 ! D41   D(24,19,20,21)          0.956          estimate D2E/DX2                !
 ! D42   D(24,19,20,22)       -119.1639         estimate D2E/DX2                !
 ! D43   D(24,19,20,23)        120.9847         estimate D2E/DX2                !
 ! D44   D(15,19,24,25)       -178.8319         estimate D2E/DX2                !
 ! D45   D(15,19,24,26)          2.2167         estimate D2E/DX2                !
 ! D46   D(20,19,24,25)          0.5222         estimate D2E/DX2                !
 ! D47   D(20,19,24,26)       -178.4292         estimate D2E/DX2                !
 ! D48   D(19,24,26,1)        -103.3652         estimate D2E/DX2                !
 ! D49   D(19,24,26,27)         20.4337         estimate D2E/DX2                !
 ! D50   D(19,24,26,28)        135.8105         estimate D2E/DX2                !
 ! D51   D(25,24,26,1)          77.6436         estimate D2E/DX2                !
 ! D52   D(25,24,26,27)       -158.5574         estimate D2E/DX2                !
 ! D53   D(25,24,26,28)        -43.1806         estimate D2E/DX2                !
 --------------------------------------------------------------------------------
 Trust Radius=3.00D-01 FncErr=1.00D-07 GrdErr=1.00D-07 EigMax=2.50D+02 EigMin=1.00D-04
 Number of steps in this run=    138 maximum allowed number of steps=    168.
 GradGradGradGradGradGradGradGradGradGradGradGradGradGradGradGradGradGrad

 Leave Link  103 at Fri Sep 17 14:21:50 2021, MaxMem=   524288000 cpu:               0.0 elap:               0.1
 (Enter /opt/gaussian/g16_legacy/l202.exe)
                          Input orientation:                          
 ---------------------------------------------------------------------
 Center     Atomic      Atomic             Coordinates (Angstroms)
 Number     Number       Type             X           Y           Z
 ---------------------------------------------------------------------
      1          6           0        0.980500    0.489800   -0.497100
      2          1           0        1.152700    1.410000   -1.071600
      3          1           0        0.945700    0.814500    0.549700
      4          6           0        2.141100   -0.457300   -0.722800
      5          6           0        2.711700   -0.447100   -2.117800
      6          1           0        3.073000    0.554500   -2.372800
      7          1           0        1.947900   -0.738000   -2.845900
      8          1           0        3.552800   -1.139900   -2.227000
      9          6           0        2.672300   -1.250100    0.228900
     10          1           0        3.522800   -1.879500   -0.031900
     11          6           0        2.217100   -1.402100    1.645900
     12          1           0        2.982600   -1.015500    2.325500
     13          1           0        1.275800   -0.890500    1.858500
     14          1           0        2.068300   -2.463600    1.868900
     15          6           0       -2.404000   -0.155400    1.477000
     16          1           0       -2.422200    0.386100    2.429000
     17          1           0       -1.525500   -0.804200    1.500000
     18          1           0       -3.293000   -0.792300    1.426100
     19          6           0       -2.398900    0.817600    0.330300
     20          6           0       -3.503900    1.840300    0.380500
     21          1           0       -3.474000    2.527400   -0.471700
     22          1           0       -3.425500    2.439500    1.293500
     23          1           0       -4.479700    1.343500    0.372300
     24          6           0       -1.500100    0.826100   -0.673500
     25          1           0       -1.587000    1.594700   -1.441700
     26          6           0       -0.361200   -0.133400   -0.895100
     27          1           0       -0.518300   -1.074400   -0.357900
     28          1           0       -0.351200   -0.400700   -1.959400
 ---------------------------------------------------------------------
                    Distance matrix (angstroms):
                    1          2          3          4          5
     1  C    0.000000
     2  H    1.098395   0.000000
     3  H    1.096554   1.739564   0.000000
     4  C    1.514903   2.141356   2.160026   0.000000
     5  C    2.549805   2.640802   3.438887   1.507220   0.000000
     6  H    2.810870   2.472358   3.624088   2.148180   1.094881
     7  H    2.821386   2.897307   3.865845   2.150273   1.094597
     8  H    3.502171   3.687468   4.280971   2.172891   1.095146
     9  C    2.533084   3.328155   2.710467   1.347753   2.480597
    10  H    3.506178   4.185590   3.773240   2.099783   2.657185
    11  C    3.114629   4.052858   2.780545   2.551306   3.914344
    12  H    3.773778   4.557617   3.263637   3.211206   4.487692
    13  H    2.746139   3.727323   2.174615   2.756722   4.250809
    14  H    3.937491   4.948701   3.707622   3.278330   4.513758
    15  C    3.970919   4.647145   3.608474   5.058478   6.259238
    16  H    4.489007   5.107101   3.880470   5.609712   6.908295
    17  H    3.455847   4.323027   3.103239   4.301760   5.582998
    18  H    4.858527   5.554537   4.616975   5.853156   6.981032
    19  C    3.494623   3.863952   3.351790   4.831769   5.806108
    20  C    4.764858   4.896701   4.569446   6.193728   7.078657
    21  H    4.898472   4.797376   4.848818   6.364027   7.058341
    22  H    5.140079   5.254853   4.722420   6.591203   7.591749
    23  H    5.594501   5.814912   5.454015   6.948174   7.818125
    24  C    2.509500   2.745318   2.734646   3.861073   4.631015
    25  H    2.950446   2.770748   3.314959   4.315814   4.806754
    26  C    1.531973   2.169131   2.166552   2.529052   3.322065
    27  H    2.170829   3.077962   2.556360   2.754337   3.731441
    28  H    2.169040   2.515659   3.074775   2.782794   3.067344
                    6          7          8          9         10
     6  H    0.000000
     7  H    1.777704   0.000000
     8  H    1.767048   1.766427   0.000000
     9  C    3.191549   3.200218   2.611296   0.000000
    10  H    3.406830   3.420808   2.316543   1.089730   0.000000
    11  C    4.550912   4.548600   4.105143   1.496062   2.178939
    12  H    4.954503   5.281192   4.589756   2.132382   2.568199
    13  H    4.818906   4.754614   4.683827   2.176033   3.098506
    14  H    5.301921   5.022104   4.553276   2.127674   2.463693
    15  C    6.732195   6.161649   7.083242   5.340875   6.354232
    16  H    7.299511   6.941610   7.727072   5.785458   6.821437
    17  H    6.163672   5.563788   6.308118   4.408633   5.384080
    18  H    7.534684   6.761654   7.767300   6.101448   7.054282
    19  C    6.108818   5.603821   6.767150   5.477475   6.517060
    20  C    7.244968   6.839548   8.091827   6.907894   7.961250
    21  H    7.097163   6.759931   8.118256   7.248265   8.280664
    22  H    7.695809   7.490298   8.596668   7.206226   8.287902
    23  H    8.074737   7.483548   8.800267   7.609102   8.636615
    24  C    4.886167   4.365139   5.640064   4.746984   5.741206
    25  H    4.864624   4.461926   5.874715   5.387525   6.337796
    26  C    3.801386   3.082711   4.255161   3.422355   4.345047
    27  H    4.428383   3.519297   4.480143   3.248866   4.133395
    28  H    3.578890   2.487069   3.982366   3.827753   4.572743
                   11         12         13         14         15
    11  C    0.000000
    12  H    1.094215   0.000000
    13  H    1.092236   1.773945   0.000000
    14  H    1.094830   1.772406   1.761479   0.000000
    15  C    4.789296   5.520433   3.771849   5.048053   0.000000
    16  H    5.033290   5.584537   3.953528   5.347812   1.095380
    17  H    3.792865   4.587926   2.825465   3.975562   1.092352
    18  H    5.548096   6.343650   4.590266   5.633192   1.094785
    19  C    5.288225   6.025083   4.330868   5.752342   1.503887
    20  C    6.696584   7.349374   5.699762   7.196409   2.528816
    21  H    7.232829   7.878080   6.298609   7.817006   3.484214
    22  H    6.835277   7.352945   5.788812   7.386021   2.794752
    23  H    7.348980   8.066337   6.350223   7.720759   2.788475
    24  C    4.915493   5.699131   4.130782   5.478996   2.530816
    25  H    5.743280   6.471954   5.026247   6.386790   3.499878
    26  C    3.835872   4.725607   3.291699   4.355686   3.130555
    27  H    3.406613   4.411395   2.857454   3.684971   2.786985
    28  H    4.538409   5.463750   4.178923   4.976486   4.010362
                   16         17         18         19         20
    16  H    0.000000
    17  H    1.756111   0.000000
    18  H    1.775592   1.769084   0.000000
    19  C    2.142726   2.182031   2.142888   0.000000
    20  C    2.735164   3.487223   2.840483   1.506473   0.000000
    21  H    3.755730   4.334029   3.828161   2.173122   1.095101
    22  H    2.551945   3.764868   3.237232   2.147608   1.094877
    23  H    3.062668   3.822515   2.660901   2.146640   1.095017
    24  C    3.266401   2.717099   3.200317   1.347415   2.480873
    25  H    4.140120   3.796327   4.102741   2.098345   2.656170
    26  C    3.945534   2.746283   3.797048   2.560904   3.924183
    27  H    3.677595   2.130552   3.310770   2.754985   4.237277
    28  H    4.915908   3.675492   4.502127   3.304551   4.520700
                   21         22         23         24         25
    21  H    0.000000
    22  H    1.768053   0.000000
    23  H    1.767877   1.777966   0.000000
    24  C    2.613700   3.190504   3.199909   0.000000
    25  H    2.317671   3.402218   3.423655   1.090151   0.000000
    26  C    4.116874   4.560671   4.555171   1.505603   2.188078
    27  H    4.660695   4.850405   4.698098   2.162275   3.072594
    28  H    4.531986   5.300888   5.052086   2.116258   2.403505
                   26         27         28
    26  C    0.000000
    27  H    1.094872   0.000000
    28  H    1.097399   1.745450   0.000000
 Stoichiometry    C10H18
 Framework group  C1[X(C10H18)]
 Deg. of freedom    78
 Full point group                 C1      NOp   1
 Largest Abelian subgroup         C1      NOp   1
 Largest concise Abelian subgroup C1      NOp   1
                         Standard orientation:                         
 ---------------------------------------------------------------------
 Center     Atomic      Atomic             Coordinates (Angstroms)
 Number     Number       Type             X           Y           Z
 ---------------------------------------------------------------------
      1          6           0       -0.793750   -0.586459    0.589178
      2          1           0       -0.746004   -1.484323    1.220076
      3          1           0       -0.484580    0.235288    1.246123
      4          6           0       -2.220953   -0.386937    0.122043
      5          6           0       -2.975715   -1.655016   -0.184590
      6          1           0       -3.025280   -2.291718    0.704746
      7          1           0       -2.478705   -2.212243   -0.984979
      8          1           0       -4.003281   -1.458188   -0.508184
      9          6           0       -2.820187    0.813927   -0.001575
     10          1           0       -3.860403    0.846651   -0.324670
     11          6           0       -2.215705    2.161873    0.234737
     12          1           0       -2.690834    2.635733    1.099037
     13          1           0       -1.137429    2.131939    0.406213
     14          1           0       -2.388743    2.797188   -0.639955
     15          6           0        2.466007    1.425894   -0.456104
     16          1           0        2.815335    2.072730    0.355948
     17          1           0        1.439570    1.725927   -0.678905
     18          1           0        3.076392    1.626110   -1.342612
     19          6           0        2.593430   -0.018241   -0.056211
     20          6           0        3.965092   -0.407943    0.429725
     21          1           0        4.023691   -1.466054    0.705792
     22          1           0        4.237077    0.181214    1.311584
     23          1           0        4.709117   -0.227422   -0.353156
     24          6           0        1.596342   -0.923584   -0.097406
     25          1           0        1.804020   -1.940207    0.236923
     26          6           0        0.185939   -0.715588   -0.581495
     27          1           0        0.111253    0.156986   -1.238596
     28          1           0       -0.084191   -1.577165   -1.205192
 ---------------------------------------------------------------------
 Rotational constants (GHZ):           2.2181215           0.5802271           0.4854219
 Leave Link  202 at Fri Sep 17 14:21:50 2021, MaxMem=   524288000 cpu:               0.0 elap:               0.1
 (Enter /opt/gaussian/g16_legacy/l301.exe)
 Standard basis: 6-31G(d,p) (6D, 7F)
 Ernie: Thresh=  0.10000D-02 Tol=  0.10000D-05 Strict=F.
 There are   240 symmetry adapted cartesian basis functions of A   symmetry.
 There are   240 symmetry adapted basis functions of A   symmetry.
   240 basis functions,   406 primitive gaussians,   240 cartesian basis functions
    39 alpha electrons       39 beta electrons
       nuclear repulsion energy       516.4341837892 Hartrees.
 IExCor=    0 DFT=F Ex=HF Corr=None ExCW=0 ScaHFX=  1.000000
 ScaDFX=  1.000000  1.000000  1.000000  1.000000 ScalE2=  1.000000  1.000000
 IRadAn=      5 IRanWt=     -1 IRanGd=            0 ICorTp=0 IEmpDi=  4
 NAtoms=   28 NActive=   28 NUniq=   28 SFac= 1.00D+00 NAtFMM=   60 NAOKFM=F Big=F
 Integral buffers will be    131072 words long.
 Raffenetti 1 integral format.
 Two-electron integral symmetry is turned on.
 Leave Link  301 at Fri Sep 17 14:21:50 2021, MaxMem=   524288000 cpu:               0.0 elap:               0.1
 (Enter /opt/gaussian/g16_legacy/l302.exe)
 NPDir=0 NMtPBC=     1 NCelOv=     1 NCel=       1 NClECP=     1 NCelD=      1
         NCelK=      1 NCelE2=     1 NClLst=     1 CellRange=     0.0.
 One-electron integrals computed using PRISM.
 One-electron integral symmetry used in STVInt
 NBasis=   240 RedAO= T EigKep=  2.10D-03  NBF=   240
 NBsUse=   240 1.00D-06 EigRej= -1.00D+00 NBFU=   240
 Leave Link  302 at Fri Sep 17 14:21:50 2021, MaxMem=   524288000 cpu:               0.2 elap:               0.4
 (Enter /opt/gaussian/g16_legacy/l303.exe)
 DipDrv:  MaxL=1.
 Leave Link  303 at Fri Sep 17 14:21:51 2021, MaxMem=   524288000 cpu:               0.0 elap:               0.1
 (Enter /opt/gaussian/g16_legacy/l401.exe)
 ExpMin= 1.61D-01 ExpMax= 3.05D+03 ExpMxC= 4.57D+02 IAcc=3 IRadAn=         5 AccDes= 0.00D+00
 Harris functional with IExCor=  205 and IRadAn=       5 diagonalized for initial guess.
 HarFok:  IExCor=  205 AccDes= 0.00D+00 IRadAn=         5 IDoV= 1 UseB2=F ITyADJ=14
 ICtDFT=  3500011 ScaDFX=  1.000000  1.000000  1.000000  1.000000
 FoFCou: FMM=F IPFlag=           0 FMFlag=      100000 FMFlg1=           0
         NFxFlg=           0 DoJE=T BraDBF=F KetDBF=T FulRan=T
         wScrn=  0.000000 ICntrl=       500 IOpCl=  0 I1Cent=   200000004 NGrid=           0
         NMat0=    1 NMatS0=      1 NMatT0=    0 NMatD0=    1 NMtDS0=    0 NMtDT0=    0
 Petite list used in FoFCou.
 Harris En= -390.109891109363    
 JPrj=0 DoOrth=F DoCkMO=F.
 Leave Link  401 at Fri Sep 17 14:21:58 2021, MaxMem=   524288000 cpu:               6.5 elap:               6.7
 (Enter /opt/gaussian/g16_legacy/l502.exe)
 Keep R1 ints in memory in canonical form, NReq=425198025.
 FoFCou: FMM=F IPFlag=           0 FMFlag=           0 FMFlg1=           0
         NFxFlg=           0 DoJE=F BraDBF=F KetDBF=F FulRan=T
         wScrn=  0.000000 ICntrl=       600 IOpCl=  0 I1Cent=           0 NGrid=           0
         NMat0=    1 NMatS0=  28920 NMatT0=    0 NMatD0=    1 NMtDS0=    0 NMtDT0=    0
 Symmetry not used in FoFCou.
 Two-electron integral symmetry not used.
 Closed shell SCF:
 Using DIIS extrapolation, IDIIS=  1040.
 NGot=   524288000 LenX=   105970886 LenY=   105912845
 Requested convergence on RMS density matrix=1.00D-08 within 128 cycles.
 Requested convergence on MAX density matrix=1.00D-06.
 Requested convergence on             energy=1.00D-06.
 No special actions if energy rises.

 Cycle   1  Pass 1  IDiag  1:
 E= -388.533182427733    
 DIIS: error= 5.21D-02 at cycle   1 NSaved=   1.
 NSaved= 1 IEnMin= 1 EnMin= -388.533182427733     IErMin= 1 ErrMin= 5.21D-02
 ErrMax= 5.21D-02  0.00D+00 EMaxC= 1.00D-01 BMatC= 8.07D-01 BMatP= 8.07D-01
 IDIUse=3 WtCom= 4.79D-01 WtEn= 5.21D-01
 Coeff-Com:  0.100D+01
 Coeff-En:   0.100D+01
 Coeff:      0.100D+01
 Gap=     0.508 Goal=   None    Shift=    0.000
 GapD=    0.508 DampG=2.000 DampE=0.500 DampFc=1.0000 IDamp=-1.
 RMSDP=4.00D-03 MaxDP=1.14D-01              OVMax= 1.33D-01

 Cycle   2  Pass 1  IDiag  1:
 E= -389.073872570793     Delta-E=       -0.540690143060 Rises=F Damp=F
 DIIS: error= 1.59D-02 at cycle   2 NSaved=   2.
 NSaved= 2 IEnMin= 2 EnMin= -389.073872570793     IErMin= 2 ErrMin= 1.59D-02
 ErrMax= 1.59D-02  0.00D+00 EMaxC= 1.00D-01 BMatC= 8.66D-02 BMatP= 8.07D-01
 IDIUse=3 WtCom= 8.41D-01 WtEn= 1.59D-01
 Coeff-Com:  0.183D+00 0.817D+00
 Coeff-En:   0.000D+00 0.100D+01
 Coeff:      0.154D+00 0.846D+00
 Gap=     0.549 Goal=   None    Shift=    0.000
 RMSDP=1.63D-03 MaxDP=3.04D-02 DE=-5.41D-01 OVMax= 4.61D-02

 Cycle   3  Pass 1  IDiag  1:
 E= -389.151434803074     Delta-E=       -0.077562232281 Rises=F Damp=F
 DIIS: error= 3.43D-03 at cycle   3 NSaved=   3.
 NSaved= 3 IEnMin= 3 EnMin= -389.151434803074     IErMin= 3 ErrMin= 3.43D-03
 ErrMax= 3.43D-03  0.00D+00 EMaxC= 1.00D-01 BMatC= 3.14D-03 BMatP= 8.66D-02
 IDIUse=3 WtCom= 9.66D-01 WtEn= 3.43D-02
 Coeff-Com: -0.245D-01 0.106D+00 0.919D+00
 Coeff-En:   0.000D+00 0.000D+00 0.100D+01
 Coeff:     -0.236D-01 0.102D+00 0.921D+00
 Gap=     0.499 Goal=   None    Shift=    0.000
 RMSDP=2.59D-04 MaxDP=7.14D-03 DE=-7.76D-02 OVMax= 1.01D-02

 Cycle   4  Pass 1  IDiag  1:
 E= -389.155060737174     Delta-E=       -0.003625934100 Rises=F Damp=F
 DIIS: error= 5.31D-04 at cycle   4 NSaved=   4.
 NSaved= 4 IEnMin= 4 EnMin= -389.155060737174     IErMin= 4 ErrMin= 5.31D-04
 ErrMax= 5.31D-04  0.00D+00 EMaxC= 1.00D-01 BMatC= 9.28D-05 BMatP= 3.14D-03
 IDIUse=3 WtCom= 9.95D-01 WtEn= 5.31D-03
 Coeff-Com: -0.424D-02-0.190D-02 0.949D-01 0.911D+00
 Coeff-En:   0.000D+00 0.000D+00 0.000D+00 0.100D+01
 Coeff:     -0.421D-02-0.189D-02 0.944D-01 0.912D+00
 Gap=     0.499 Goal=   None    Shift=    0.000
 RMSDP=7.39D-05 MaxDP=1.49D-03 DE=-3.63D-03 OVMax= 3.14D-03

 Cycle   5  Pass 1  IDiag  1:
 E= -389.155185055785     Delta-E=       -0.000124318611 Rises=F Damp=F
 DIIS: error= 1.63D-04 at cycle   5 NSaved=   5.
 NSaved= 5 IEnMin= 5 EnMin= -389.155185055785     IErMin= 5 ErrMin= 1.63D-04
 ErrMax= 1.63D-04  0.00D+00 EMaxC= 1.00D-01 BMatC= 1.60D-05 BMatP= 9.28D-05
 IDIUse=3 WtCom= 9.98D-01 WtEn= 1.63D-03
 Coeff-Com:  0.241D-02-0.152D-01-0.102D+00 0.176D+00 0.939D+00
 Coeff-En:   0.000D+00 0.000D+00 0.000D+00 0.000D+00 0.100D+01
 Coeff:      0.241D-02-0.152D-01-0.102D+00 0.175D+00 0.939D+00
 Gap=     0.500 Goal=   None    Shift=    0.000
 RMSDP=3.00D-05 MaxDP=6.56D-04 DE=-1.24D-04 OVMax= 9.22D-04

 Cycle   6  Pass 1  IDiag  1:
 E= -389.155206531885     Delta-E=       -0.000021476100 Rises=F Damp=F
 DIIS: error= 3.57D-05 at cycle   6 NSaved=   6.
 NSaved= 6 IEnMin= 6 EnMin= -389.155206531885     IErMin= 6 ErrMin= 3.57D-05
 ErrMax= 3.57D-05  0.00D+00 EMaxC= 1.00D-01 BMatC= 5.49D-07 BMatP= 1.60D-05
 IDIUse=1 WtCom= 1.00D+00 WtEn= 0.00D+00
 Coeff-Com:  0.720D-03-0.335D-02-0.261D-01-0.434D-02 0.177D+00 0.856D+00
 Coeff:      0.720D-03-0.335D-02-0.261D-01-0.434D-02 0.177D+00 0.856D+00
 Gap=     0.500 Goal=   None    Shift=    0.000
 RMSDP=5.30D-06 MaxDP=1.61D-04 DE=-2.15D-05 OVMax= 3.23D-04

 Cycle   7  Pass 1  IDiag  1:
 E= -389.155207372506     Delta-E=       -0.000000840621 Rises=F Damp=F
 DIIS: error= 1.03D-05 at cycle   7 NSaved=   7.
 NSaved= 7 IEnMin= 7 EnMin= -389.155207372506     IErMin= 7 ErrMin= 1.03D-05
 ErrMax= 1.03D-05  0.00D+00 EMaxC= 1.00D-01 BMatC= 5.44D-08 BMatP= 5.49D-07
 IDIUse=1 WtCom= 1.00D+00 WtEn= 0.00D+00
 Coeff-Com: -0.494D-04 0.463D-03 0.301D-02-0.105D-01-0.468D-01 0.145D+00
 Coeff-Com:  0.909D+00
 Coeff:     -0.494D-04 0.463D-03 0.301D-02-0.105D-01-0.468D-01 0.145D+00
 Coeff:      0.909D+00
 Gap=     0.500 Goal=   None    Shift=    0.000
 RMSDP=1.71D-06 MaxDP=4.09D-05 DE=-8.41D-07 OVMax= 8.40D-05

 Cycle   8  Pass 1  IDiag  1:
 E= -389.155207461405     Delta-E=       -0.000000088899 Rises=F Damp=F
 DIIS: error= 3.51D-06 at cycle   8 NSaved=   8.
 NSaved= 8 IEnMin= 8 EnMin= -389.155207461405     IErMin= 8 ErrMin= 3.51D-06
 ErrMax= 3.51D-06  0.00D+00 EMaxC= 1.00D-01 BMatC= 5.09D-09 BMatP= 5.44D-08
 IDIUse=1 WtCom= 1.00D+00 WtEn= 0.00D+00
 Coeff-Com: -0.581D-04 0.249D-03 0.207D-02 0.315D-02-0.171D-01-0.803D-01
 Coeff-Com: -0.123D+00 0.121D+01
 Coeff:     -0.581D-04 0.249D-03 0.207D-02 0.315D-02-0.171D-01-0.803D-01
 Coeff:     -0.123D+00 0.121D+01
 Gap=     0.500 Goal=   None    Shift=    0.000
 RMSDP=7.85D-07 MaxDP=2.41D-05 DE=-8.89D-08 OVMax= 5.81D-05

 Cycle   9  Pass 1  IDiag  1:
 E= -389.155207477268     Delta-E=       -0.000000015863 Rises=F Damp=F
 DIIS: error= 1.46D-06 at cycle   9 NSaved=   9.
 NSaved= 9 IEnMin= 9 EnMin= -389.155207477268     IErMin= 9 ErrMin= 1.46D-06
 ErrMax= 1.46D-06  0.00D+00 EMaxC= 1.00D-01 BMatC= 7.39D-10 BMatP= 5.09D-09
 IDIUse=1 WtCom= 1.00D+00 WtEn= 0.00D+00
 Coeff-Com:  0.931D-05-0.691D-04-0.481D-03 0.144D-02 0.386D-02 0.127D-03
 Coeff-Com: -0.865D-01-0.121D+00 0.120D+01
 Coeff:      0.931D-05-0.691D-04-0.481D-03 0.144D-02 0.386D-02 0.127D-03
 Coeff:     -0.865D-01-0.121D+00 0.120D+01
 Gap=     0.500 Goal=   None    Shift=    0.000
 RMSDP=2.99D-07 MaxDP=1.24D-05 DE=-1.59D-08 OVMax= 2.71D-05

 Cycle  10  Pass 1  IDiag  1:
 E= -389.155207479684     Delta-E=       -0.000000002416 Rises=F Damp=F
 DIIS: error= 3.96D-07 at cycle  10 NSaved=  10.
 NSaved=10 IEnMin=10 EnMin= -389.155207479684     IErMin=10 ErrMin= 3.96D-07
 ErrMax= 3.96D-07  0.00D+00 EMaxC= 1.00D-01 BMatC= 1.21D-10 BMatP= 7.39D-10
 IDIUse=1 WtCom= 1.00D+00 WtEn= 0.00D+00
 Coeff-Com:  0.950D-05-0.463D-04-0.368D-03-0.136D-03 0.233D-02 0.142D-01
 Coeff-Com:  0.600D-02-0.211D+00 0.143D+00 0.105D+01
 Coeff:      0.950D-05-0.463D-04-0.368D-03-0.136D-03 0.233D-02 0.142D-01
 Coeff:      0.600D-02-0.211D+00 0.143D+00 0.105D+01
 Gap=     0.500 Goal=   None    Shift=    0.000
 RMSDP=1.24D-07 MaxDP=3.07D-06 DE=-2.42D-09 OVMax= 9.87D-06

 Cycle  11  Pass 1  IDiag  1:
 E= -389.155207480001     Delta-E=       -0.000000000317 Rises=F Damp=F
 DIIS: error= 1.55D-07 at cycle  11 NSaved=  11.
 NSaved=11 IEnMin=11 EnMin= -389.155207480001     IErMin=11 ErrMin= 1.55D-07
 ErrMax= 1.55D-07  0.00D+00 EMaxC= 1.00D-01 BMatC= 9.52D-12 BMatP= 1.21D-10
 IDIUse=1 WtCom= 1.00D+00 WtEn= 0.00D+00
 Coeff-Com:  0.391D-06 0.852D-06 0.112D-05-0.149D-03-0.306D-03 0.277D-02
 Coeff-Com:  0.110D-01-0.152D-01-0.107D+00 0.164D+00 0.945D+00
 Coeff:      0.391D-06 0.852D-06 0.112D-05-0.149D-03-0.306D-03 0.277D-02
 Coeff:      0.110D-01-0.152D-01-0.107D+00 0.164D+00 0.945D+00
 Gap=     0.500 Goal=   None    Shift=    0.000
 RMSDP=2.76D-08 MaxDP=1.15D-06 DE=-3.17D-10 OVMax= 2.50D-06

 Cycle  12  Pass 1  IDiag  1:
 E= -389.155207480018     Delta-E=       -0.000000000018 Rises=F Damp=F
 DIIS: error= 3.64D-08 at cycle  12 NSaved=  12.
 NSaved=12 IEnMin=12 EnMin= -389.155207480018     IErMin=12 ErrMin= 3.64D-08
 ErrMax= 3.64D-08  0.00D+00 EMaxC= 1.00D-01 BMatC= 1.17D-12 BMatP= 9.52D-12
 IDIUse=1 WtCom= 1.00D+00 WtEn= 0.00D+00
 Coeff-Com: -0.102D-05 0.547D-05 0.429D-04 0.323D-05-0.342D-03-0.126D-02
 Coeff-Com:  0.367D-03 0.217D-01-0.322D-01-0.113D+00 0.989D-01 0.103D+01
 Coeff:     -0.102D-05 0.547D-05 0.429D-04 0.323D-05-0.342D-03-0.126D-02
 Coeff:      0.367D-03 0.217D-01-0.322D-01-0.113D+00 0.989D-01 0.103D+01
 Gap=     0.500 Goal=   None    Shift=    0.000
 RMSDP=1.18D-08 MaxDP=3.33D-07 DE=-1.75D-11 OVMax= 8.45D-07

 Cycle  13  Pass 1  IDiag  1:
 E= -389.155207480026     Delta-E=       -0.000000000008 Rises=F Damp=F
 DIIS: error= 1.06D-08 at cycle  13 NSaved=  13.
 NSaved=13 IEnMin=13 EnMin= -389.155207480026     IErMin=13 ErrMin= 1.06D-08
 ErrMax= 1.06D-08  0.00D+00 EMaxC= 1.00D-01 BMatC= 5.48D-14 BMatP= 1.17D-12
 IDIUse=1 WtCom= 1.00D+00 WtEn= 0.00D+00
 Coeff-Com: -0.122D-06 0.462D-06 0.389D-05 0.136D-04-0.170D-04-0.298D-03
 Coeff-Com: -0.849D-03 0.352D-02 0.516D-02-0.213D-01-0.612D-01 0.111D+00
 Coeff-Com:  0.964D+00
 Coeff:     -0.122D-06 0.462D-06 0.389D-05 0.136D-04-0.170D-04-0.298D-03
 Coeff:     -0.849D-03 0.352D-02 0.516D-02-0.213D-01-0.612D-01 0.111D+00
 Coeff:      0.964D+00
 Gap=     0.500 Goal=   None    Shift=    0.000
 RMSDP=2.13D-09 MaxDP=7.02D-08 DE=-7.73D-12 OVMax= 1.05D-07

 SCF Done:  E(RHF) =  -389.155207480     A.U. after   13 cycles
            NFock= 13  Conv=0.21D-08     -V/T= 2.0014
 KE= 3.886257311031D+02 PE=-1.937502038022D+03 EE= 6.432869156501D+02
 Leave Link  502 at Fri Sep 17 14:22:14 2021, MaxMem=   524288000 cpu:              16.1 elap:              16.8
 (Enter /opt/gaussian/g16_legacy/l801.exe)
 ExpMin= 1.61D-01 ExpMax= 3.05D+03 ExpMxC= 4.57D+02 IAcc=3 IRadAn=         5 AccDes= 0.00D+00
 HarFok:  IExCor=  205 AccDes= 0.00D+00 IRadAn=         5 IDoV=-2 UseB2=F ITyADJ=14
 ICtDFT= 12500011 ScaDFX=  1.000000  1.000000  1.000000  1.000000
 Largest valence mixing into a core orbital is  1.98D-04
 Largest core mixing into a valence orbital is  3.52D-05
 Range of M.O.s used for correlation:    11   240
 NBasis=   240 NAE=    39 NBE=    39 NFC=    10 NFV=     0
 NROrb=    230 NOA=    29 NOB=    29 NVA=   201 NVB=   201
 Leave Link  801 at Fri Sep 17 14:22:16 2021, MaxMem=   524288000 cpu:               0.9 elap:               1.2
 (Enter /opt/gaussian/g16_legacy/l906.exe)
 Frozen-core derivative calculation, NFC=  10 NFV=   0.
 FulOut=F Deriv=T AODrv=T NAtomX=    28
   MMem=          88  MDisk=          29 MDiskD=          29
  W3Min=     2246400 MinDsk=     2795480 NBas6D=         240
 NBas2D=       29244    NTT=       28920    LW2=     2040000
    MDV=   523626386 MDiskM=       30186 NBas2p=       24383
 Fully direct method using O(ONN) memory.
 IMap=   1   2   3   4   5   6   7   8   9  10  11  12  13  14  15  16  17  18  19  20
 IMap=  21  22  23  24  25  26  27  28  29  30  31  32  33  34  35  36  37  38  39
 JobTyp=1 Pass  1:  I=  11 to  39 NPSUse=  1 ParTrn=F ParDer=F DoDerP=T.
 Spin components of T(2) and E(2):
     alpha-alpha T2 =       0.5715152332D-01 E2=     -0.1638024645D+00
     alpha-beta  T2 =       0.3618163782D+00 E2=     -0.1089337609D+01
     beta-beta   T2 =       0.5715152332D-01 E2=     -0.1638024645D+00
 The integrals were generated   1 times.
 ANorm=    0.1214956553D+01
 E2 =    -0.1416942538D+01 EUMP2 =    -0.39057215001762D+03
 Leave Link  906 at Fri Sep 17 14:24:55 2021, MaxMem=   524288000 cpu:             158.4 elap:             159.3
 (Enter /opt/gaussian/g16_legacy/l1002.exe)
 Minotr:  Closed shell wavefunction.
          Computing MP2/KS-MP2 derivatives.
          Using Z-Vector for PSCF gradient.
          Skipping F1 and S1 gradient terms here.
          IDoAtm=1111111111111111111111111111
          Frozen-core window.
          Direct CPHF calculation.
          Differentiating once with respect to electric field.
                with respect to dipole field.
          Differentiating once with respect to nuclear coordinates.
          Requested convergence is 1.0D-10 RMS, and 1.0D-09 maximum.
          NewPWx=F KeepS1=T KeepF1=T KeepIn=T MapXYZ=F SortEE=F KeepMc=T.
 Keep R1 ints in memory in canonical form, NReq=425201067.
 FoFCou: FMM=F IPFlag=           0 FMFlag=           0 FMFlg1=           0
         NFxFlg=           0 DoJE=F BraDBF=F KetDBF=F FulRan=T
         wScrn=  0.000000 ICntrl=       600 IOpCl=  0 I1Cent=           0 NGrid=           0
         NMat0=    1 NMatS0=  28920 NMatT0=    0 NMatD0=    1 NMtDS0=    0 NMtDT0=    0
 Symmetry not used in FoFCou.
 Two-electron integral symmetry not used.
          MDV=     524288000 using IRadAn=       5.
          Solving linear equations separately, MaxMat=       0.
          There are     1 degrees of freedom in the 1st order CPHF.  IDoFFX=0 NUNeed=     1.
 LinEq1:  Iter=  0 NonCon=     1 RMS=2.55D-03 Max=3.76D-02 NDo=     1
 AX will form     1 AO Fock derivatives at one time.
 LinEq1:  Iter=  1 NonCon=     1 RMS=6.90D-04 Max=9.74D-03 NDo=     1
 LinEq1:  Iter=  2 NonCon=     1 RMS=1.61D-04 Max=4.14D-03 NDo=     1
 LinEq1:  Iter=  3 NonCon=     1 RMS=4.31D-05 Max=5.08D-04 NDo=     1
 LinEq1:  Iter=  4 NonCon=     1 RMS=1.99D-05 Max=8.55D-04 NDo=     1
 LinEq1:  Iter=  5 NonCon=     1 RMS=5.06D-06 Max=8.26D-05 NDo=     1
 LinEq1:  Iter=  6 NonCon=     1 RMS=1.63D-06 Max=2.68D-05 NDo=     1
 LinEq1:  Iter=  7 NonCon=     1 RMS=4.13D-07 Max=4.19D-06 NDo=     1
 LinEq1:  Iter=  8 NonCon=     1 RMS=1.01D-07 Max=1.86D-06 NDo=     1
 LinEq1:  Iter=  9 NonCon=     1 RMS=2.33D-08 Max=6.32D-07 NDo=     1
 LinEq1:  Iter= 10 NonCon=     1 RMS=6.43D-09 Max=1.62D-07 NDo=     1
 LinEq1:  Iter= 11 NonCon=     1 RMS=1.89D-09 Max=3.64D-08 NDo=     1
 LinEq1:  Iter= 12 NonCon=     1 RMS=4.18D-10 Max=8.25D-09 NDo=     1
 LinEq1:  Iter= 13 NonCon=     1 RMS=1.10D-10 Max=9.89D-10 NDo=     1
 LinEq1:  Iter= 14 NonCon=     1 RMS=4.66D-11 Max=1.73D-09 NDo=     1
 LinEq1:  Iter= 15 NonCon=     0 RMS=1.41D-11 Max=1.93D-10 NDo=     1
 Linear equations converged to 1.000D-10 1.000D-09 after    15 iterations.
 End of Minotr F.D. properties file   721 does not exist.
 End of Minotr F.D. properties file   722 does not exist.
 End of Minotr F.D. properties file   788 does not exist.
 Leave Link 1002 at Fri Sep 17 14:25:16 2021, MaxMem=   524288000 cpu:              20.5 elap:              20.8
 (Enter /opt/gaussian/g16_legacy/l601.exe)
 Copying SCF densities to generalized density rwf, IOpCl= 0 IROHF=0.

 **********************************************************************

            Population analysis using the SCF density.

 **********************************************************************

 Orbital symmetries:
       Occupied  (A) (A) (A) (A) (A) (A) (A) (A) (A) (A) (A) (A)
                 (A) (A) (A) (A) (A) (A) (A) (A) (A) (A) (A) (A)
                 (A) (A) (A) (A) (A) (A) (A) (A) (A) (A) (A) (A)
                 (A) (A) (A)
       Virtual   (A) (A) (A) (A) (A) (A) (A) (A) (A) (A) (A) (A)
                 (A) (A) (A) (A) (A) (A) (A) (A) (A) (A) (A) (A)
                 (A) (A) (A) (A) (A) (A) (A) (A) (A) (A) (A) (A)
                 (A) (A) (A) (A) (A) (A) (A) (A) (A) (A) (A) (A)
                 (A) (A) (A) (A) (A) (A) (A) (A) (A) (A) (A) (A)
                 (A) (A) (A) (A) (A) (A) (A) (A) (A) (A) (A) (A)
                 (A) (A) (A) (A) (A) (A) (A) (A) (A) (A) (A) (A)
                 (A) (A) (A) (A) (A) (A) (A) (A) (A) (A) (A) (A)
                 (A) (A) (A) (A) (A) (A) (A) (A) (A) (A) (A) (A)
                 (A) (A) (A) (A) (A) (A) (A) (A) (A) (A) (A) (A)
                 (A) (A) (A) (A) (A) (A) (A) (A) (A) (A) (A) (A)
                 (A) (A) (A) (A) (A) (A) (A) (A) (A) (A) (A) (A)
                 (A) (A) (A) (A) (A) (A) (A) (A) (A) (A) (A) (A)
                 (A) (A) (A) (A) (A) (A) (A) (A) (A) (A) (A) (A)
                 (A) (A) (A) (A) (A) (A) (A) (A) (A) (A) (A) (A)
                 (A) (A) (A) (A) (A) (A) (A) (A) (A) (A) (A) (A)
                 (A) (A) (A) (A) (A) (A) (A) (A) (A)
 The electronic state is 1-A.
 Alpha  occ. eigenvalues --  -11.23060 -11.22505 -11.21999 -11.21921 -11.21883
 Alpha  occ. eigenvalues --  -11.21650 -11.21554 -11.21485 -11.21457 -11.21438
 Alpha  occ. eigenvalues --   -1.10623  -1.08327  -1.01911  -0.98013  -0.93647
 Alpha  occ. eigenvalues --   -0.91775  -0.86755  -0.82685  -0.70598  -0.69341
 Alpha  occ. eigenvalues --   -0.64584  -0.61544  -0.60101  -0.59030  -0.58089
 Alpha  occ. eigenvalues --   -0.56803  -0.55367  -0.55149  -0.53548  -0.51981
 Alpha  occ. eigenvalues --   -0.51716  -0.51320  -0.50592  -0.49229  -0.48275
 Alpha  occ. eigenvalues --   -0.46014  -0.44271  -0.33356  -0.31526
 Alpha virt. eigenvalues --    0.18456   0.19494   0.22038   0.24453   0.25183
 Alpha virt. eigenvalues --    0.27140   0.28394   0.28931   0.30249   0.30504
 Alpha virt. eigenvalues --    0.31237   0.32117   0.33136   0.33435   0.34031
 Alpha virt. eigenvalues --    0.35676   0.35774   0.36970   0.38998   0.40648
 Alpha virt. eigenvalues --    0.41064   0.42593   0.43320   0.44191   0.45150
 Alpha virt. eigenvalues --    0.51684   0.54045   0.61170   0.62447   0.70139
 Alpha virt. eigenvalues --    0.71102   0.71886   0.74279   0.76417   0.76617
 Alpha virt. eigenvalues --    0.76877   0.78795   0.79454   0.81139   0.82036
 Alpha virt. eigenvalues --    0.83811   0.85655   0.88079   0.91266   0.92026
 Alpha virt. eigenvalues --    0.92897   0.95178   0.97057   0.98262   0.99207
 Alpha virt. eigenvalues --    0.99750   1.00203   1.02302   1.03925   1.06182
 Alpha virt. eigenvalues --    1.07863   1.08639   1.08809   1.11198   1.12390
 Alpha virt. eigenvalues --    1.12559   1.13431   1.14582   1.14925   1.15819
 Alpha virt. eigenvalues --    1.16164   1.16403   1.18224   1.18703   1.20090
 Alpha virt. eigenvalues --    1.20661   1.22067   1.22853   1.25017   1.27541
 Alpha virt. eigenvalues --    1.34170   1.40672   1.41851   1.43739   1.45173
 Alpha virt. eigenvalues --    1.47559   1.53475   1.56255   1.56979   1.58246
 Alpha virt. eigenvalues --    1.59848   1.62720   1.65798   1.69518   1.70791
 Alpha virt. eigenvalues --    1.75330   1.82527   1.92033   1.92195   1.95500
 Alpha virt. eigenvalues --    1.98630   2.01126   2.02850   2.04183   2.08701
 Alpha virt. eigenvalues --    2.09242   2.11121   2.11379   2.13101   2.14505
 Alpha virt. eigenvalues --    2.15426   2.17688   2.19727   2.23577   2.27382
 Alpha virt. eigenvalues --    2.28339   2.29994   2.32200   2.34975   2.35568
 Alpha virt. eigenvalues --    2.35646   2.35781   2.39321   2.39850   2.40350
 Alpha virt. eigenvalues --    2.41277   2.41828   2.43034   2.45159   2.45385
 Alpha virt. eigenvalues --    2.47032   2.48340   2.49336   2.50337   2.54525
 Alpha virt. eigenvalues --    2.56586   2.57721   2.61274   2.62182   2.64354
 Alpha virt. eigenvalues --    2.66339   2.67157   2.72032   2.72995   2.73745
 Alpha virt. eigenvalues --    2.75718   2.77695   2.81090   2.82803   2.85161
 Alpha virt. eigenvalues --    2.87729   2.89154   2.91917   2.93439   2.94437
 Alpha virt. eigenvalues --    2.97093   2.99034   3.01162   3.02600   3.05100
 Alpha virt. eigenvalues --    3.05822   3.06630   3.08506   3.13014   3.15937
 Alpha virt. eigenvalues --    3.17135   3.18163   3.19612   3.20678   3.21265
 Alpha virt. eigenvalues --    3.23191   3.24410   3.26460   3.27243   3.36662
 Alpha virt. eigenvalues --    3.39072   3.44604   3.45616   3.55550   3.57290
 Alpha virt. eigenvalues --    3.58692   3.61055   3.66892   3.73953   3.78200
 Alpha virt. eigenvalues --    3.78868   3.80504   3.81323   3.82329   3.82836
 Alpha virt. eigenvalues --    3.84209   3.85750   3.87654   3.89505   3.91171
 Alpha virt. eigenvalues --    3.95896   4.59095   4.62634   4.74428   4.82815
 Alpha virt. eigenvalues --    4.88836   4.92668   4.93352   5.07549   5.10287
 Alpha virt. eigenvalues --    5.16868
          Condensed to atoms (all electrons):
               1          2          3          4          5          6
     1  C    5.001809   0.413504   0.412353   0.340283  -0.058737  -0.003551
     2  H    0.413504   0.588518  -0.030232  -0.045058  -0.004691   0.002570
     3  H    0.412353  -0.030232   0.571671  -0.040524   0.003237  -0.000016
     4  C    0.340283  -0.045058  -0.040524   4.955077   0.349335  -0.043065
     5  C   -0.058737  -0.004691   0.003237   0.349335   4.896446   0.397380
     6  H   -0.003551   0.002570  -0.000016  -0.043065   0.397380   0.593610
     7  H   -0.000532  -0.000276  -0.000030  -0.045810   0.400276  -0.035014
     8  H    0.003675   0.000081  -0.000103  -0.041410   0.406176  -0.027606
     9  C   -0.044048   0.001918  -0.002230   0.698844  -0.045929  -0.000426
    10  H    0.003080  -0.000114   0.000060  -0.036538  -0.006484   0.000248
    11  C   -0.007063   0.000138  -0.002135  -0.050684   0.003424  -0.000114
    12  H    0.000227   0.000028   0.000172  -0.001412  -0.000116   0.000021
    13  H   -0.001827   0.000004  -0.001334  -0.000418   0.000092  -0.000001
    14  H    0.000232  -0.000010  -0.000034   0.000593  -0.000100  -0.000004
    15  C    0.000597  -0.000016   0.000160  -0.000017  -0.000000  -0.000000
    16  H    0.000077  -0.000001  -0.000076  -0.000002   0.000000  -0.000000
    17  H   -0.000053  -0.000012  -0.000052  -0.000027  -0.000000  -0.000000
    18  H   -0.000041   0.000000   0.000014   0.000001  -0.000000   0.000000
    19  C   -0.003607   0.000615   0.001046   0.000006  -0.000002   0.000000
    20  C   -0.000101  -0.000000  -0.000042   0.000002  -0.000000  -0.000000
    21  H   -0.000003   0.000002  -0.000002   0.000000  -0.000000  -0.000000
    22  H    0.000022  -0.000001  -0.000005  -0.000000   0.000000  -0.000000
    23  H   -0.000004   0.000000   0.000001   0.000000  -0.000000   0.000000
    24  C   -0.063069  -0.000609  -0.000807   0.006130  -0.000158   0.000001
    25  H    0.000005   0.001003   0.000213  -0.000155   0.000010  -0.000002
    26  C    0.326223  -0.044598  -0.039852  -0.057361  -0.000187   0.000027
    27  H   -0.040294   0.004203  -0.002144  -0.001438   0.000317   0.000012
    28  H   -0.045124  -0.002604   0.004290  -0.001850  -0.000392   0.000093
               7          8          9         10         11         12
     1  C   -0.000532   0.003675  -0.044048   0.003080  -0.007063   0.000227
     2  H   -0.000276   0.000081   0.001918  -0.000114   0.000138   0.000028
     3  H   -0.000030  -0.000103  -0.002230   0.000060  -0.002135   0.000172
     4  C   -0.045810  -0.041410   0.698844  -0.036538  -0.050684  -0.001412
     5  C    0.400276   0.406176  -0.045929  -0.006484   0.003424  -0.000116
     6  H   -0.035014  -0.027606  -0.000426   0.000248  -0.000114   0.000021
     7  H    0.594788  -0.028076  -0.001034   0.000123  -0.000100  -0.000005
     8  H   -0.028076   0.571027  -0.002736   0.002223   0.000137  -0.000004
     9  C   -0.001034  -0.002736   4.939962   0.404867   0.337719  -0.044362
    10  H    0.000123   0.002223   0.404867   0.559379  -0.043632  -0.000222
    11  C   -0.000100   0.000137   0.337719  -0.043632   4.906210   0.400025
    12  H   -0.000005  -0.000004  -0.044362  -0.000222   0.400025   0.584261
    13  H    0.000000   0.000004  -0.041944   0.003315   0.408020  -0.026854
    14  H    0.000015  -0.000009  -0.042840  -0.002646   0.403007  -0.033274
    15  C   -0.000000  -0.000000   0.000010  -0.000000  -0.000097   0.000002
    16  H    0.000000  -0.000000   0.000000  -0.000000  -0.000003  -0.000000
    17  H    0.000000   0.000000  -0.000032   0.000000   0.000040  -0.000008
    18  H    0.000000   0.000000   0.000000   0.000000   0.000002   0.000000
    19  C    0.000000   0.000000   0.000001   0.000000   0.000007  -0.000000
    20  C   -0.000000   0.000000  -0.000000   0.000000  -0.000000   0.000000
    21  H   -0.000000   0.000000  -0.000000   0.000000   0.000000  -0.000000
    22  H    0.000000  -0.000000  -0.000000  -0.000000   0.000000  -0.000000
    23  H    0.000000   0.000000   0.000000   0.000000  -0.000000   0.000000
    24  C   -0.000086   0.000003   0.000070   0.000002  -0.000032   0.000002
    25  H    0.000012  -0.000000  -0.000002  -0.000000   0.000000   0.000000
    26  C    0.000810  -0.000097  -0.004366  -0.000116   0.000690  -0.000050
    27  H   -0.000009  -0.000010   0.001215  -0.000044   0.000070   0.000023
    28  H   -0.000187  -0.000025   0.000514   0.000004  -0.000030  -0.000000
              13         14         15         16         17         18
     1  C   -0.001827   0.000232   0.000597   0.000077  -0.000053  -0.000041
     2  H    0.000004  -0.000010  -0.000016  -0.000001  -0.000012   0.000000
     3  H   -0.001334  -0.000034   0.000160  -0.000076  -0.000052   0.000014
     4  C   -0.000418   0.000593  -0.000017  -0.000002  -0.000027   0.000001
     5  C    0.000092  -0.000100  -0.000000   0.000000  -0.000000  -0.000000
     6  H   -0.000001  -0.000004  -0.000000  -0.000000  -0.000000   0.000000
     7  H    0.000000   0.000015  -0.000000   0.000000   0.000000   0.000000
     8  H    0.000004  -0.000009  -0.000000  -0.000000   0.000000   0.000000
     9  C   -0.041944  -0.042840   0.000010   0.000000  -0.000032   0.000000
    10  H    0.003315  -0.002646  -0.000000  -0.000000   0.000000   0.000000
    11  C    0.408020   0.403007  -0.000097  -0.000003   0.000040   0.000002
    12  H   -0.026854  -0.033274   0.000002  -0.000000  -0.000008   0.000000
    13  H    0.573893  -0.030013   0.000010   0.000034   0.000571  -0.000006
    14  H   -0.030013   0.586781  -0.000004   0.000000   0.000042  -0.000000
    15  C    0.000010  -0.000004   4.909234   0.402446   0.406146   0.398272
    16  H    0.000034   0.000000   0.402446   0.586194  -0.030017  -0.033094
    17  H    0.000571   0.000042   0.406146  -0.030017   0.568208  -0.026274
    18  H   -0.000006  -0.000000   0.398272  -0.033094  -0.026274   0.582516
    19  C   -0.000013   0.000000   0.348393  -0.043932  -0.037061  -0.043823
    20  C    0.000000  -0.000000  -0.065379  -0.003430   0.003678  -0.001684
    21  H   -0.000000  -0.000000   0.003695   0.000010  -0.000108  -0.000079
    22  H   -0.000000   0.000000  -0.002139   0.002847  -0.000072  -0.000371
    23  H   -0.000000  -0.000000  -0.001105  -0.000507  -0.000023   0.002553
    24  C    0.000003  -0.000004  -0.043323   0.000449  -0.002871  -0.000843
    25  H   -0.000001   0.000000   0.003365  -0.000110   0.000059  -0.000126
    26  C   -0.000212   0.000091  -0.007533   0.000286  -0.001946   0.000188
    27  H   -0.000251  -0.000079  -0.002064  -0.000043  -0.001170   0.000056
    28  H   -0.000008   0.000000   0.000169  -0.000012   0.000031   0.000032
              19         20         21         22         23         24
     1  C   -0.003607  -0.000101  -0.000003   0.000022  -0.000004  -0.063069
     2  H    0.000615  -0.000000   0.000002  -0.000001   0.000000  -0.000609
     3  H    0.001046  -0.000042  -0.000002  -0.000005   0.000001  -0.000807
     4  C    0.000006   0.000002   0.000000  -0.000000   0.000000   0.006130
     5  C   -0.000002  -0.000000  -0.000000   0.000000  -0.000000  -0.000158
     6  H    0.000000  -0.000000  -0.000000  -0.000000   0.000000   0.000001
     7  H    0.000000  -0.000000  -0.000000   0.000000   0.000000  -0.000086
     8  H    0.000000   0.000000   0.000000  -0.000000   0.000000   0.000003
     9  C    0.000001  -0.000000  -0.000000  -0.000000   0.000000   0.000070
    10  H    0.000000   0.000000   0.000000  -0.000000   0.000000   0.000002
    11  C    0.000007  -0.000000   0.000000   0.000000  -0.000000  -0.000032
    12  H   -0.000000   0.000000  -0.000000  -0.000000   0.000000   0.000002
    13  H   -0.000013   0.000000  -0.000000  -0.000000  -0.000000   0.000003
    14  H    0.000000  -0.000000  -0.000000   0.000000  -0.000000  -0.000004
    15  C    0.348393  -0.065379   0.003695  -0.002139  -0.001105  -0.043323
    16  H   -0.043932  -0.003430   0.000010   0.002847  -0.000507   0.000449
    17  H   -0.037061   0.003678  -0.000108  -0.000072  -0.000023  -0.002871
    18  H   -0.043823  -0.001684  -0.000079  -0.000371   0.002553  -0.000843
    19  C    4.918229   0.352282  -0.040395  -0.044303  -0.045767   0.698170
    20  C    0.352282   4.903245   0.405428   0.396993   0.399259  -0.044863
    21  H   -0.040395   0.405428   0.568023  -0.027366  -0.027562  -0.002387
    22  H   -0.044303   0.396993  -0.027366   0.594286  -0.034907  -0.000546
    23  H   -0.045767   0.399259  -0.027562  -0.034907   0.593104  -0.001136
    24  C    0.698170  -0.044863  -0.002387  -0.000546  -0.001136   4.961540
    25  H   -0.036142  -0.006749   0.002177   0.000235   0.000150   0.402012
    26  C   -0.048265   0.003152   0.000146  -0.000086  -0.000124   0.339926
    27  H    0.000822   0.000070   0.000006  -0.000004   0.000004  -0.043813
    28  H    0.000914  -0.000102  -0.000011  -0.000002   0.000012  -0.043346
              25         26         27         28
     1  C    0.000005   0.326223  -0.040294  -0.045124
     2  H    0.001003  -0.044598   0.004203  -0.002604
     3  H    0.000213  -0.039852  -0.002144   0.004290
     4  C   -0.000155  -0.057361  -0.001438  -0.001850
     5  C    0.000010  -0.000187   0.000317  -0.000392
     6  H   -0.000002   0.000027   0.000012   0.000093
     7  H    0.000012   0.000810  -0.000009  -0.000187
     8  H   -0.000000  -0.000097  -0.000010  -0.000025
     9  C   -0.000002  -0.004366   0.001215   0.000514
    10  H   -0.000000  -0.000116  -0.000044   0.000004
    11  C    0.000000   0.000690   0.000070  -0.000030
    12  H    0.000000  -0.000050   0.000023  -0.000000
    13  H   -0.000001  -0.000212  -0.000251  -0.000008
    14  H    0.000000   0.000091  -0.000079   0.000000
    15  C    0.003365  -0.007533  -0.002064   0.000169
    16  H   -0.000110   0.000286  -0.000043  -0.000012
    17  H    0.000059  -0.001946  -0.001170   0.000031
    18  H   -0.000126   0.000188   0.000056   0.000032
    19  C   -0.036142  -0.048265   0.000822   0.000914
    20  C   -0.006749   0.003152   0.000070  -0.000102
    21  H    0.002177   0.000146   0.000006  -0.000011
    22  H    0.000235  -0.000086  -0.000004  -0.000002
    23  H    0.000150  -0.000124   0.000004   0.000012
    24  C    0.402012   0.339926  -0.043813  -0.043346
    25  H    0.558524  -0.041271   0.003231  -0.003485
    26  C   -0.041271   4.982288   0.414881   0.413775
    27  H    0.003231   0.414881   0.571220  -0.029600
    28  H   -0.003485   0.413775  -0.029600   0.588475
 Mulliken charges:
               1
     1  C   -0.234030
     2  H    0.115637
     3  H    0.126402
     4  C    0.015501
     5  C   -0.339896
     6  H    0.115838
     7  H    0.115133
     8  H    0.116750
     9  C   -0.155171
    10  H    0.116495
    11  C   -0.355599
    12  H    0.121547
    13  H    0.116937
    14  H    0.118254
    15  C   -0.350819
    16  H    0.118886
    17  H    0.120950
    18  H    0.122708
    19  C    0.022826
    20  C   -0.341759
    21  H    0.118425
    22  H    0.115420
    23  H    0.116053
    24  C   -0.160416
    25  H    0.117048
    26  C   -0.236421
    27  H    0.124833
    28  H    0.118471
 Sum of Mulliken charges =  -0.00000
 Mulliken charges with hydrogens summed into heavy atoms:
               1
     1  C    0.008009
     4  C    0.015501
     5  C    0.007825
     9  C   -0.038676
    11  C    0.001139
    15  C    0.011725
    19  C    0.022826
    20  C    0.008139
    24  C   -0.043368
    26  C    0.006883
 Electronic spatial extent (au):  <R**2>=           2423.6639
 Charge=             -0.0000 electrons
 Dipole moment (field-independent basis, Debye):
    X=              0.2949    Y=              0.1263    Z=             -0.0059  Tot=              0.3208
 Quadrupole moment (field-independent basis, Debye-Ang):
   XX=            -64.5128   YY=            -63.6033   ZZ=            -67.0540
   XY=              0.6113   XZ=              0.8627   YZ=             -0.4854
 Traceless Quadrupole moment (field-independent basis, Debye-Ang):
   XX=              0.5439   YY=              1.4534   ZZ=             -1.9973
   XY=              0.6113   XZ=              0.8627   YZ=             -0.4854
 Octapole moment (field-independent basis, Debye-Ang**2):
  XXX=              1.3681  YYY=             -2.7201  ZZZ=              0.1846  XYY=             -0.5703
  XXY=              4.5348  XXZ=             -2.6510  XZZ=              1.5764  YZZ=              1.2282
  YYZ=              1.3700  XYZ=             -0.7515
 Hexadecapole moment (field-independent basis, Debye-Ang**3):
 XXXX=          -2492.3338 YYYY=           -696.1121 ZZZZ=           -174.8263 XXXY=             -2.3303
 XXXZ=             11.9386 YYYX=             -9.3536 YYYZ=             -3.0547 ZZZX=             -0.8374
 ZZZY=             -0.0652 XXYY=           -530.4706 XXZZ=           -456.3180 YYZZ=           -139.1722
 XXYZ=             -4.2438 YYXZ=              3.1976 ZZXY=              4.6996
 N-N= 5.164341837892D+02 E-N=-1.937502038133D+03  KE= 3.886257311031D+02
 No NMR shielding tensors so no spin-rotation constants.
 Leave Link  601 at Fri Sep 17 14:25:17 2021, MaxMem=   524288000 cpu:               0.2 elap:               0.4
 (Enter /opt/gaussian/g16_legacy/l701.exe)
 ... and contract with generalized density number  2.
 Compute integral first derivatives.
 Leave Link  701 at Fri Sep 17 14:25:17 2021, MaxMem=   524288000 cpu:               0.2 elap:               0.3
 (Enter /opt/gaussian/g16_legacy/l702.exe)
 L702 exits ... SP integral derivatives will be done elsewhere.
 Leave Link  702 at Fri Sep 17 14:25:17 2021, MaxMem=   524288000 cpu:               0.0 elap:               0.0
 (Enter /opt/gaussian/g16_legacy/l703.exe)
 Integral derivatives from FoFJK, PRISM(SPDF).
 Compute integral first derivatives, UseDBF=F ICtDFT=           0.
 Calling FoFJK, ICntrl=  10002127 FMM=F ISym2X=0 I1Cent= 0 IOpClX= 0 NMat=1 NMatS=1 NMatT=0.
 FoFJK:  IHMeth= 1 ICntrl=10002127 DoSepK=F KAlg= 0 I1Cent=           0 FoldK=F
 IRaf=         0 NMat=       1 IRICut=       1 DoRegI=T DoRafI=F ISym2E= 0 IDoP0=0 IntGTp=1.
 FoFCou: FMM=F IPFlag=           0 FMFlag=      100000 FMFlg1=         800
         NFxFlg=           0 DoJE=F BraDBF=F KetDBF=F FulRan=T
         wScrn=  0.000000 ICntrl=  10002127 IOpCl=  0 I1Cent=           0 NGrid=           0
         NMat0=    1 NMatS0=      1 NMatT0=    0 NMatD0=    1 NMtDS0=    0 NMtDT0=    0
 Symmetry not used in FoFCou.
 Leave Link  703 at Fri Sep 17 14:25:37 2021, MaxMem=   524288000 cpu:              19.4 elap:              19.6
 (Enter /opt/gaussian/g16_legacy/l716.exe)
 Dipole        = 9.11214984D-02 6.69327595D-02-4.78261795D-03
 ***** Axes restored to original set *****
 -------------------------------------------------------------------
 Center     Atomic                   Forces (Hartrees/Bohr)
 Number     Number              X              Y              Z
 -------------------------------------------------------------------
      1        6           0.008067546   -0.001795634    0.004698973
      2        1          -0.001636664   -0.003417406   -0.000582939
      3        1          -0.002248701   -0.003226993   -0.002526967
      4        6           0.005660443    0.003052576   -0.000404265
      5        6           0.002099129   -0.002351438   -0.000303086
      6        1          -0.002378565   -0.001853202   -0.001486031
      7        1           0.001821881    0.002861630   -0.000278498
      8        1          -0.003305969    0.001535816    0.001851758
      9        6          -0.002688501   -0.000731414   -0.002527512
     10        1          -0.001978248    0.002083511   -0.002130291
     11        6          -0.001740554    0.000091538    0.002082585
     12        1          -0.002399435   -0.002108676    0.001317996
     13        1           0.002969350   -0.000069072   -0.001561250
     14        1           0.001271630    0.002827967    0.001537803
     15        6           0.003488944   -0.003030019    0.000229652
     16        1          -0.002504602   -0.001368626   -0.002281844
     17        1          -0.002262746    0.001686746   -0.002048541
     18        1           0.001019521    0.001578933    0.002519394
     19        6           0.002213728    0.004341251   -0.002195620
     20        6           0.000648113    0.002279712   -0.002419052
     21        1           0.001275028   -0.003401487    0.002380645
     22        1          -0.002850651   -0.001827875   -0.000899654
     23        1           0.001221971    0.002065970    0.002386150
     24        6          -0.000583461   -0.004113551   -0.003214501
     25        1          -0.001621560    0.000012979    0.003021026
     26        6          -0.007911909    0.000843196   -0.000399037
     27        1           0.001944355    0.003366660    0.000919528
     28        1           0.002409924    0.000666908    0.002313579
 -------------------------------------------------------------------
 Cartesian Forces:  Max     0.008067546 RMS     0.002576016
 Leave Link  716 at Fri Sep 17 14:25:37 2021, MaxMem=   524288000 cpu:               0.1 elap:               0.2
 (Enter /opt/gaussian/g16_legacy/l103.exe)

 GradGradGradGradGradGradGradGradGradGradGradGradGradGradGradGradGradGrad
 Berny optimization.
 FormGI is forming the generalized inverse of G from B-inverse, IUseBI=4.
 Internal  Forces:  Max     0.004869987 RMS     0.001917954
 Search for a local minimum.
 Step number   1 out of a maximum of  138
 All quantities printed in internal units (Hartrees-Bohrs-Radians)
 RMS Force = .19180D-02 SwitMx=.10000D-02 MixMth= 1
 Mixed Optimization -- RFO/linear search
 Second derivative matrix not updated -- first step.
 ITU=  0
     Eigenvalues ---    0.00343   0.00569   0.00670   0.00680   0.00692
     Eigenvalues ---    0.00715   0.00818   0.01219   0.01287   0.01568
     Eigenvalues ---    0.01641   0.02780   0.02784   0.04018   0.04138
     Eigenvalues ---    0.05349   0.05399   0.06978   0.07036   0.07090
     Eigenvalues ---    0.07092   0.07269   0.07301   0.07347   0.07505
     Eigenvalues ---    0.09277   0.09361   0.12766   0.12843   0.15999
     Eigenvalues ---    0.15999   0.16000   0.16000   0.16000   0.16000
     Eigenvalues ---    0.16000   0.16000   0.16000   0.16000   0.16000
     Eigenvalues ---    0.16000   0.16000   0.16000   0.21858   0.21866
     Eigenvalues ---    0.22000   0.22000   0.24994   0.24997   0.24998
     Eigenvalues ---    0.24999   0.29242   0.30863   0.31631   0.31708
     Eigenvalues ---    0.31797   0.31973   0.32794   0.33860   0.33971
     Eigenvalues ---    0.34066   0.34198   0.34225   0.34230   0.34239
     Eigenvalues ---    0.34255   0.34255   0.34256   0.34260   0.34266
     Eigenvalues ---    0.34287   0.34330   0.34542   0.34556   0.34795
     Eigenvalues ---    0.34844   0.55502   0.55575
 RFO step:  Lambda=-2.96071012D-03 EMin= 3.43006648D-03
 Linear search not attempted -- first point.
 Iteration  1 RMS(Cart)=  0.03970010 RMS(Int)=  0.00072348
 Iteration  2 RMS(Cart)=  0.00093468 RMS(Int)=  0.00016615
 Iteration  3 RMS(Cart)=  0.00000043 RMS(Int)=  0.00016615
 ITry= 1 IFail=0 DXMaxC= 1.79D-01 DCOld= 1.00D+10 DXMaxT= 3.00D-01 DXLimC= 3.00D+00 Rises=F
 Variable       Old X    -DE/DX   Delta X   Delta X   Delta X     New X
                                 (Linear)    (Quad)   (Total)
    R1        2.07567  -0.00281   0.00000  -0.00824  -0.00824   2.06742
    R2        2.07219  -0.00330   0.00000  -0.00959  -0.00959   2.06259
    R3        2.86275  -0.00357   0.00000  -0.01145  -0.01145   2.85130
    R4        2.89501   0.00173   0.00000   0.00587   0.00587   2.90088
    R5        2.84823  -0.00047   0.00000  -0.00146  -0.00146   2.84677
    R6        2.54688  -0.00394   0.00000  -0.00705  -0.00705   2.53983
    R7        2.06903  -0.00213   0.00000  -0.00618  -0.00618   2.06285
    R8        2.06849  -0.00185   0.00000  -0.00534  -0.00534   2.06315
    R9        2.06953  -0.00370   0.00000  -0.01070  -0.01070   2.05882
   R10        2.05929  -0.00224   0.00000  -0.00637  -0.00637   2.05292
   R11        2.82715   0.00309   0.00000   0.00935   0.00935   2.83649
   R12        2.06777  -0.00161   0.00000  -0.00464  -0.00464   2.06313
   R13        2.06403  -0.00290   0.00000  -0.00831  -0.00831   2.05572
   R14        2.06893  -0.00260   0.00000  -0.00753  -0.00753   2.06140
   R15        2.06997  -0.00262   0.00000  -0.00759  -0.00759   2.06238
   R16        2.06425  -0.00286   0.00000  -0.00822  -0.00822   2.05602
   R17        2.06884  -0.00186   0.00000  -0.00539  -0.00539   2.06345
   R18        2.84193  -0.00047   0.00000  -0.00146  -0.00146   2.84047
   R19        2.84682  -0.00077   0.00000  -0.00240  -0.00240   2.84442
   R20        2.54625  -0.00325   0.00000  -0.00582  -0.00582   2.54043
   R21        2.06944  -0.00395   0.00000  -0.01145  -0.01145   2.05799
   R22        2.06902  -0.00195   0.00000  -0.00566  -0.00566   2.06336
   R23        2.06928  -0.00204   0.00000  -0.00592  -0.00592   2.06336
   R24        2.06009  -0.00199   0.00000  -0.00567  -0.00567   2.05441
   R25        2.84518  -0.00154   0.00000  -0.00479  -0.00479   2.84039
   R26        2.06901  -0.00272   0.00000  -0.00788  -0.00788   2.06113
   R27        2.07378  -0.00238   0.00000  -0.00696  -0.00696   2.06683
    A1        1.82989   0.00207   0.00000   0.02249   0.02232   1.85222
    A2        1.90258  -0.00069   0.00000  -0.00268  -0.00267   1.89991
    A3        1.92008  -0.00195   0.00000  -0.01724  -0.01727   1.90280
    A4        1.93014   0.00043   0.00000   0.00924   0.00927   1.93942
    A5        1.91843  -0.00278   0.00000  -0.02026  -0.02030   1.89813
    A6        1.95836   0.00284   0.00000   0.00912   0.00916   1.96753
    A7        2.00832   0.00237   0.00000   0.00965   0.00908   2.01741
    A8        2.17064  -0.00487   0.00000  -0.01889  -0.01942   2.15122
    A9        2.10404   0.00252   0.00000   0.01034   0.00977   2.11381
   A10        1.92482   0.00165   0.00000   0.00900   0.00902   1.93384
   A11        1.92803   0.00227   0.00000   0.01216   0.01219   1.94022
   A12        1.95926  -0.00262   0.00000  -0.01309  -0.01305   1.94620
   A13        1.89490  -0.00307   0.00000  -0.02467  -0.02466   1.87024
   A14        1.87764   0.00109   0.00000   0.01015   0.01018   1.88782
   A15        1.87703   0.00055   0.00000   0.00561   0.00565   1.88268
   A16        2.06959  -0.00192   0.00000  -0.01330  -0.01332   2.05627
   A17        2.22517  -0.00188   0.00000  -0.00841  -0.00842   2.21675
   A18        1.98828   0.00381   0.00000   0.02188   0.02186   2.01015
   A19        1.91719   0.00396   0.00000   0.02334   0.02331   1.94049
   A20        1.98121  -0.00299   0.00000  -0.01840  -0.01831   1.96290
   A21        1.91005   0.00237   0.00000   0.01557   0.01552   1.92556
   A22        1.89287  -0.00096   0.00000  -0.00762  -0.00753   1.88534
   A23        1.88718  -0.00310   0.00000  -0.01888  -0.01906   1.86812
   A24        1.87272   0.00052   0.00000   0.00491   0.00498   1.87771
   A25        1.86364   0.00201   0.00000   0.01702   0.01703   1.88068
   A26        1.89073  -0.00240   0.00000  -0.02166  -0.02164   1.86909
   A27        1.92080   0.00000   0.00000  -0.00087  -0.00085   1.91995
   A28        1.88442   0.00023   0.00000   0.00327   0.00329   1.88771
   A29        1.97970  -0.00222   0.00000  -0.01019  -0.01017   1.96954
   A30        1.92165   0.00230   0.00000   0.01165   0.01168   1.93332
   A31        1.99471   0.00146   0.00000   0.00580   0.00578   2.00049
   A32        2.18265  -0.00329   0.00000  -0.01297  -0.01299   2.16966
   A33        2.10578   0.00183   0.00000   0.00728   0.00726   2.11304
   A34        1.96058  -0.00276   0.00000  -0.01381  -0.01377   1.94680
   A35        1.92495   0.00220   0.00000   0.01234   0.01236   1.93731
   A36        1.92346   0.00174   0.00000   0.00875   0.00877   1.93223
   A37        1.87925   0.00092   0.00000   0.00932   0.00936   1.88861
   A38        1.87881   0.00092   0.00000   0.00792   0.00795   1.88676
   A39        1.89478  -0.00313   0.00000  -0.02535  -0.02535   1.86944
   A40        2.06717  -0.00168   0.00000  -0.01184  -0.01224   2.05493
   A41        2.22713  -0.00225   0.00000  -0.00993  -0.01034   2.21679
   A42        1.98875   0.00394   0.00000   0.02256   0.02214   2.01089
   A43        1.94444   0.00331   0.00000   0.01369   0.01372   1.95816
   A44        1.92604  -0.00264   0.00000  -0.02491  -0.02498   1.90107
   A45        1.92097  -0.00240   0.00000  -0.01484  -0.01503   1.90594
   A46        1.94654  -0.00053   0.00000  -0.00239  -0.00234   1.94420
   A47        1.88059   0.00061   0.00000   0.01705   0.01710   1.89769
   A48        1.84192   0.00155   0.00000   0.01190   0.01164   1.85356
    D1       -0.63959   0.00059   0.00000  -0.02156  -0.02132  -0.66091
    D2        2.48150   0.00157   0.00000   0.04070   0.04051   2.52201
    D3       -2.64262  -0.00174   0.00000  -0.05219  -0.05198  -2.69460
    D4        0.47848  -0.00076   0.00000   0.01008   0.00985   0.48832
[...]
                 (A) (A) (A) (A) (A) (A) (A) (A) (A) (A) (A) (A)
                 (A) (A) (A) (A) (A) (A) (A) (A) (A) (A) (A) (A)
                 (A) (A) (A) (A) (A) (A) (A) (A) (A) (A) (A) (A)
                 (A) (A) (A) (A) (A) (A) (A) (A) (A) (A) (A) (A)
                 (A) (A) (A) (A) (A) (A) (A) (A) (A) (A) (A) (A)
                 (A) (A) (A) (A) (A) (A) (A) (A) (A) (A) (A) (A)
                 (A) (A) (A) (A) (A) (A) (A) (A) (A) (A) (A) (A)
                 (A) (A) (A) (A) (A) (A) (A) (A) (A) (A) (A) (A)
                 (A) (A) (A) (A) (A) (A) (A) (A) (A) (A) (A) (A)
                 (A) (A) (A) (A) (A) (A) (A) (A) (A) (A) (A) (A)
                 (A) (A) (A) (A) (A) (A) (A) (A) (A) (A) (A) (A)
                 (A) (A) (A) (A) (A) (A) (A) (A) (A) (A) (A) (A)
                 (A) (A) (A) (A) (A) (A) (A) (A) (A) (A) (A) (A)
                 (A) (A) (A) (A) (A) (A) (A) (A) (A)
 The electronic state is 1-A.
 Alpha  occ. eigenvalues --  -11.23020 -11.22460 -11.21868 -11.21730 -11.21712
 Alpha  occ. eigenvalues --  -11.21539 -11.21506 -11.21436 -11.21417 -11.21348
 Alpha  occ. eigenvalues --   -1.10821  -1.08492  -1.01823  -0.98143  -0.93838
 Alpha  occ. eigenvalues --   -0.91939  -0.86963  -0.82855  -0.70494  -0.69519
 Alpha  occ. eigenvalues --   -0.64988  -0.61512  -0.60591  -0.58878  -0.58366
 Alpha  occ. eigenvalues --   -0.56774  -0.55298  -0.54966  -0.53295  -0.52261
 Alpha  occ. eigenvalues --   -0.51859  -0.51173  -0.50832  -0.49581  -0.48519
 Alpha  occ. eigenvalues --   -0.46073  -0.44624  -0.33371  -0.31514
 Alpha virt. eigenvalues --    0.18142   0.19779   0.22152   0.24486   0.25192
 Alpha virt. eigenvalues --    0.27439   0.28535   0.28922   0.30318   0.30811
 Alpha virt. eigenvalues --    0.31477   0.32261   0.33202   0.33794   0.34383
 Alpha virt. eigenvalues --    0.35458   0.36114   0.36962   0.39185   0.40602
 Alpha virt. eigenvalues --    0.41328   0.42631   0.43685   0.44253   0.45395
 Alpha virt. eigenvalues --    0.51702   0.54378   0.61070   0.62576   0.70520
 Alpha virt. eigenvalues --    0.71073   0.72196   0.73768   0.76075   0.76177
 Alpha virt. eigenvalues --    0.76620   0.79010   0.79474   0.81070   0.82306
 Alpha virt. eigenvalues --    0.83713   0.85579   0.89117   0.91091   0.91343
 Alpha virt. eigenvalues --    0.92820   0.94745   0.97065   0.98284   0.98818
 Alpha virt. eigenvalues --    0.99710   1.00468   1.01911   1.03844   1.06577
 Alpha virt. eigenvalues --    1.08019   1.08221   1.09393   1.11664   1.12687
 Alpha virt. eigenvalues --    1.13026   1.13870   1.14856   1.15402   1.16045
 Alpha virt. eigenvalues --    1.16257   1.16619   1.18722   1.19116   1.20671
 Alpha virt. eigenvalues --    1.20953   1.23032   1.23885   1.25765   1.28153
 Alpha virt. eigenvalues --    1.34332   1.41723   1.42153   1.44890   1.46395
 Alpha virt. eigenvalues --    1.48456   1.54136   1.55360   1.57256   1.58165
 Alpha virt. eigenvalues --    1.61459   1.63397   1.66485   1.69046   1.69645
 Alpha virt. eigenvalues --    1.73917   1.82243   1.91111   1.93363   1.96231
 Alpha virt. eigenvalues --    1.98688   2.01467   2.02277   2.03942   2.08565
 Alpha virt. eigenvalues --    2.09706   2.10748   2.11744   2.13037   2.14903
 Alpha virt. eigenvalues --    2.15780   2.16940   2.19854   2.23666   2.28347
 Alpha virt. eigenvalues --    2.29590   2.30325   2.33235   2.35347   2.35688
 Alpha virt. eigenvalues --    2.35978   2.36098   2.38923   2.40264   2.41259
 Alpha virt. eigenvalues --    2.42195   2.43169   2.44154   2.45371   2.46084
 Alpha virt. eigenvalues --    2.47201   2.49167   2.49622   2.51174   2.54099
 Alpha virt. eigenvalues --    2.57315   2.58365   2.61888   2.63241   2.64107
 Alpha virt. eigenvalues --    2.67127   2.68175   2.71776   2.73352   2.73474
 Alpha virt. eigenvalues --    2.75815   2.77410   2.80796   2.82634   2.85354
 Alpha virt. eigenvalues --    2.87137   2.89441   2.92178   2.93739   2.94867
 Alpha virt. eigenvalues --    2.97869   2.99094   3.00960   3.02677   3.05807
 Alpha virt. eigenvalues --    3.06402   3.07703   3.09315   3.13762   3.17093
 Alpha virt. eigenvalues --    3.17589   3.19238   3.20046   3.21242   3.22334
 Alpha virt. eigenvalues --    3.24167   3.25050   3.26607   3.27420   3.37866
 Alpha virt. eigenvalues --    3.40355   3.46023   3.46902   3.56200   3.58183
 Alpha virt. eigenvalues --    3.59499   3.62406   3.67928   3.75494   3.78622
 Alpha virt. eigenvalues --    3.80005   3.81570   3.82569   3.83286   3.83898
 Alpha virt. eigenvalues --    3.84750   3.86481   3.87645   3.89820   3.91558
 Alpha virt. eigenvalues --    3.97645   4.59389   4.63170   4.74472   4.82572
 Alpha virt. eigenvalues --    4.88928   4.92582   4.93409   5.07840   5.10766
 Alpha virt. eigenvalues --    5.17766
          Condensed to atoms (all electrons):
               1          2          3          4          5          6
     1  C    5.004767   0.414473   0.411715   0.337355  -0.056085  -0.003698
     2  H    0.414473   0.587507  -0.028296  -0.046308  -0.004587   0.002378
     3  H    0.411715  -0.028296   0.572983  -0.038988   0.003071  -0.000034
     4  C    0.337355  -0.046308  -0.038988   4.952603   0.351934  -0.041506
     5  C   -0.056085  -0.004587   0.003071   0.351934   4.891804   0.397495
     6  H   -0.003698   0.002378  -0.000034  -0.041506   0.397495   0.591921
     7  H    0.000011  -0.000489  -0.000005  -0.045679   0.400946  -0.037541
     8  H    0.003801   0.000106  -0.000108  -0.042765   0.407087  -0.026764
     9  C   -0.047991   0.002531  -0.001860   0.697840  -0.046054  -0.000373
    10  H    0.003272  -0.000118   0.000031  -0.037842  -0.006525   0.000216
    11  C   -0.007749   0.000160  -0.002811  -0.050271   0.003364  -0.000105
    12  H    0.000152   0.000017   0.000184  -0.000627  -0.000106   0.000017
    13  H   -0.001745   0.000030  -0.001657  -0.000691   0.000109   0.000002
    14  H    0.000310  -0.000013  -0.000067  -0.000247  -0.000095  -0.000004
    15  C    0.000587  -0.000015   0.000200  -0.000018  -0.000000   0.000000
    16  H    0.000130  -0.000002  -0.000135  -0.000005   0.000000  -0.000000
    17  H   -0.000302  -0.000016  -0.000131  -0.000011  -0.000000  -0.000000
    18  H   -0.000040   0.000000   0.000022   0.000001  -0.000000   0.000000
    19  C   -0.004325   0.000787   0.001388   0.000041  -0.000003   0.000000
    20  C   -0.000099  -0.000004  -0.000043   0.000001  -0.000000  -0.000000
    21  H   -0.000003   0.000003  -0.000002   0.000000  -0.000000  -0.000000
    22  H    0.000024  -0.000002  -0.000007  -0.000000   0.000000  -0.000000
    23  H   -0.000005   0.000000   0.000002   0.000000  -0.000000   0.000000
    24  C   -0.061827  -0.000900  -0.000504   0.006443  -0.000149   0.000004
    25  H    0.000175   0.001011   0.000111  -0.000152   0.000010  -0.000001
    26  C    0.332330  -0.046074  -0.041801  -0.055544  -0.000661   0.000086
    27  H   -0.042369   0.004477  -0.003118  -0.001813   0.000243   0.000006
    28  H   -0.046841  -0.001931   0.004515  -0.002075  -0.000289   0.000058
               7          8          9         10         11         12
     1  C    0.000011   0.003801  -0.047991   0.003272  -0.007749   0.000152
     2  H   -0.000489   0.000106   0.002531  -0.000118   0.000160   0.000017
     3  H   -0.000005  -0.000108  -0.001860   0.000031  -0.002811   0.000184
     4  C   -0.045679  -0.042765   0.697840  -0.037842  -0.050271  -0.000627
     5  C    0.400946   0.407087  -0.046054  -0.006525   0.003364  -0.000106
     6  H   -0.037541  -0.026764  -0.000373   0.000216  -0.000105   0.000017
     7  H    0.596034  -0.027466  -0.001011   0.000135  -0.000101  -0.000004
     8  H   -0.027466   0.568858  -0.002890   0.002385   0.000132  -0.000006
     9  C   -0.001011  -0.002890   4.938971   0.404494   0.340494  -0.041523
    10  H    0.000135   0.002385   0.404494   0.558671  -0.041279  -0.001122
    11  C   -0.000101   0.000132   0.340494  -0.041279   4.900974   0.401144
    12  H   -0.000004  -0.000006  -0.041523  -0.001122   0.401144   0.583648
    13  H   -0.000003   0.000005  -0.043903   0.003299   0.409079  -0.027132
    14  H    0.000017  -0.000006  -0.041805  -0.001264   0.402169  -0.035462
    15  C   -0.000000  -0.000000   0.000015  -0.000000  -0.000147   0.000004
    16  H    0.000000  -0.000000   0.000000  -0.000000  -0.000009  -0.000000
    17  H    0.000000   0.000000  -0.000045   0.000000   0.000074  -0.000013
    18  H   -0.000000   0.000000   0.000000   0.000000   0.000003   0.000000
    19  C    0.000000   0.000000  -0.000001   0.000000   0.000013  -0.000000
    20  C   -0.000000   0.000000  -0.000000   0.000000  -0.000000   0.000000
    21  H   -0.000000   0.000000  -0.000000   0.000000   0.000000  -0.000000
    22  H    0.000000  -0.000000   0.000000  -0.000000  -0.000000  -0.000000
    23  H    0.000000   0.000000   0.000000   0.000000   0.000000   0.000000
    24  C   -0.000111   0.000004   0.000114   0.000002  -0.000031   0.000002
    25  H    0.000015  -0.000000  -0.000002  -0.000000   0.000000   0.000000
    26  C    0.000609  -0.000109  -0.004911  -0.000113   0.000577  -0.000037
    27  H   -0.000015  -0.000005   0.001406  -0.000046  -0.000082   0.000037
    28  H    0.000197  -0.000050   0.000760   0.000001  -0.000033  -0.000000
              13         14         15         16         17         18
     1  C   -0.001745   0.000310   0.000587   0.000130  -0.000302  -0.000040
     2  H    0.000030  -0.000013  -0.000015  -0.000002  -0.000016   0.000000
     3  H   -0.001657  -0.000067   0.000200  -0.000135  -0.000131   0.000022
     4  C   -0.000691  -0.000247  -0.000018  -0.000005  -0.000011   0.000001
     5  C    0.000109  -0.000095  -0.000000   0.000000  -0.000000  -0.000000
     6  H    0.000002  -0.000004   0.000000  -0.000000  -0.000000   0.000000
     7  H   -0.000003   0.000017  -0.000000   0.000000   0.000000  -0.000000
     8  H    0.000005  -0.000006  -0.000000  -0.000000   0.000000   0.000000
     9  C   -0.043903  -0.041805   0.000015   0.000000  -0.000045   0.000000
    10  H    0.003299  -0.001264  -0.000000  -0.000000   0.000000   0.000000
    11  C    0.409079   0.402169  -0.000147  -0.000009   0.000074   0.000003
    12  H   -0.027132  -0.035462   0.000004  -0.000000  -0.000013   0.000000
    13  H    0.577164  -0.029956  -0.000000   0.000079   0.000412  -0.000008
    14  H   -0.029956   0.586720  -0.000015   0.000000   0.000114  -0.000000
    15  C   -0.000000  -0.000015   4.907254   0.401208   0.407154   0.399852
    16  H    0.000079   0.000000   0.401208   0.587442  -0.028659  -0.035759
    17  H    0.000412   0.000114   0.407154  -0.028659   0.568221  -0.026060
    18  H   -0.000008  -0.000000   0.399852  -0.035759  -0.026060   0.584669
    19  C   -0.000026   0.000001   0.350333  -0.043385  -0.037848  -0.043537
    20  C    0.000000  -0.000000  -0.064931  -0.002632   0.003725  -0.002223
    21  H   -0.000000  -0.000000   0.003785  -0.000032  -0.000113  -0.000053
    22  H   -0.000000   0.000000  -0.001975   0.002756  -0.000068  -0.000456
    23  H   -0.000000  -0.000000  -0.001201  -0.000476  -0.000031   0.002766
    24  C    0.000026  -0.000009  -0.044248  -0.000031  -0.003253  -0.000365
    25  H   -0.000002   0.000000   0.003528  -0.000121   0.000061  -0.000121
    26  C   -0.000737   0.000163  -0.008144   0.000367  -0.002069   0.000117
    27  H   -0.000475  -0.000140  -0.002693  -0.000076  -0.001675   0.000113
    28  H   -0.000010  -0.000000   0.000195  -0.000014   0.000058   0.000021
              19         20         21         22         23         24
     1  C   -0.004325  -0.000099  -0.000003   0.000024  -0.000005  -0.061827
     2  H    0.000787  -0.000004   0.000003  -0.000002   0.000000  -0.000900
     3  H    0.001388  -0.000043  -0.000002  -0.000007   0.000002  -0.000504
     4  C    0.000041   0.000001   0.000000  -0.000000   0.000000   0.006443
     5  C   -0.000003  -0.000000  -0.000000   0.000000  -0.000000  -0.000149
     6  H    0.000000  -0.000000  -0.000000  -0.000000   0.000000   0.000004
     7  H    0.000000  -0.000000  -0.000000   0.000000   0.000000  -0.000111
     8  H    0.000000   0.000000   0.000000  -0.000000   0.000000   0.000004
     9  C   -0.000001  -0.000000  -0.000000   0.000000   0.000000   0.000114
    10  H    0.000000   0.000000   0.000000  -0.000000   0.000000   0.000002
    11  C    0.000013  -0.000000   0.000000  -0.000000   0.000000  -0.000031
    12  H   -0.000000   0.000000  -0.000000  -0.000000   0.000000   0.000002
    13  H   -0.000026   0.000000  -0.000000  -0.000000  -0.000000   0.000026
    14  H    0.000001  -0.000000  -0.000000   0.000000  -0.000000  -0.000009
    15  C    0.350333  -0.064931   0.003785  -0.001975  -0.001201  -0.044248
    16  H   -0.043385  -0.002632  -0.000032   0.002756  -0.000476  -0.000031
    17  H   -0.037848   0.003725  -0.000113  -0.000068  -0.000031  -0.003253
    18  H   -0.043537  -0.002223  -0.000053  -0.000456   0.002766  -0.000365
    19  C    4.914192   0.353753  -0.041639  -0.043899  -0.044274   0.697734
    20  C    0.353753   4.900112   0.406218   0.398238   0.398811  -0.044415
    21  H   -0.041639   0.406218   0.566018  -0.026703  -0.026549  -0.002632
    22  H   -0.043899   0.398238  -0.026703   0.594542  -0.037806  -0.000422
    23  H   -0.044274   0.398811  -0.026549  -0.037806   0.593607  -0.001270
    24  C    0.697734  -0.044415  -0.002632  -0.000422  -0.001270   4.962747
    25  H   -0.038449  -0.006963   0.002335   0.000182   0.000187   0.403391
    26  C   -0.050100   0.003126   0.000148  -0.000068  -0.000131   0.338699
    27  H    0.000438   0.000051   0.000007  -0.000005   0.000007  -0.044060
    28  H    0.001583  -0.000094  -0.000010  -0.000002   0.000009  -0.041394
              25         26         27         28
     1  C    0.000175   0.332330  -0.042369  -0.046841
     2  H    0.001011  -0.046074   0.004477  -0.001931
     3  H    0.000111  -0.041801  -0.003118   0.004515
     4  C   -0.000152  -0.055544  -0.001813  -0.002075
     5  C    0.000010  -0.000661   0.000243  -0.000289
     6  H   -0.000001   0.000086   0.000006   0.000058
     7  H    0.000015   0.000609  -0.000015   0.000197
     8  H   -0.000000  -0.000109  -0.000005  -0.000050
     9  C   -0.000002  -0.004911   0.001406   0.000760
    10  H   -0.000000  -0.000113  -0.000046   0.000001
    11  C    0.000000   0.000577  -0.000082  -0.000033
    12  H    0.000000  -0.000037   0.000037  -0.000000
    13  H   -0.000002  -0.000737  -0.000475  -0.000010
    14  H    0.000000   0.000163  -0.000140  -0.000000
    15  C    0.003528  -0.008144  -0.002693   0.000195
    16  H   -0.000121   0.000367  -0.000076  -0.000014
    17  H    0.000061  -0.002069  -0.001675   0.000058
    18  H   -0.000121   0.000117   0.000113   0.000021
    19  C   -0.038449  -0.050100   0.000438   0.001583
    20  C   -0.006963   0.003126   0.000051  -0.000094
    21  H    0.002335   0.000148   0.000007  -0.000010
    22  H    0.000182  -0.000068  -0.000005  -0.000002
    23  H    0.000187  -0.000131   0.000007   0.000009
    24  C    0.403391   0.338699  -0.044060  -0.041394
    25  H    0.557388  -0.039113   0.003152  -0.003424
    26  C   -0.039113   4.979544   0.415850   0.413482
    27  H    0.003152   0.415850   0.575347  -0.028362
    28  H   -0.003424   0.413482  -0.028362   0.585267
 Mulliken charges:
               1
     1  C   -0.236021
     2  H    0.115272
     3  H    0.125346
     4  C    0.018322
     5  C   -0.341505
     6  H    0.117844
     7  H    0.114461
     8  H    0.117792
     9  C   -0.154256
    10  H    0.115801
    11  C   -0.355567
    12  H    0.120830
    13  H    0.116140
    14  H    0.119588
    15  C   -0.350727
    16  H    0.119352
    17  H    0.120473
    18  H    0.121058
    19  C    0.027222
    20  C   -0.342631
    21  H    0.119222
    22  H    0.115672
    23  H    0.116356
    24  C   -0.163543
    25  H    0.116803
    26  C   -0.235486
    27  H    0.123802
    28  H    0.118380
 Sum of Mulliken charges =  -0.00000
 Mulliken charges with hydrogens summed into heavy atoms:
               1
     1  C    0.004596
     4  C    0.018322
     5  C    0.008593
     9  C   -0.038454
    11  C    0.000991
    15  C    0.010156
    19  C    0.027222
    20  C    0.008618
    24  C   -0.046740
    26  C    0.006696
 Electronic spatial extent (au):  <R**2>=           2384.0053
 Charge=             -0.0000 electrons
 Dipole moment (field-independent basis, Debye):
    X=              0.3027    Y=              0.1253    Z=              0.0460  Tot=              0.3308
 Quadrupole moment (field-independent basis, Debye-Ang):
   XX=            -64.3023   YY=            -63.2901   ZZ=            -67.3956
   XY=              0.7521   XZ=              1.2367   YZ=             -0.3487
 Traceless Quadrupole moment (field-independent basis, Debye-Ang):
   XX=              0.6937   YY=              1.7059   ZZ=             -2.3996
   XY=              0.7521   XZ=              1.2367   YZ=             -0.3487
 Octapole moment (field-independent basis, Debye-Ang**2):
  XXX=              2.6682  YYY=             -2.9989  ZZZ=              0.9000  XYY=             -0.6415
  XXY=              4.0909  XXZ=             -2.0918  XZZ=              1.2120  YZZ=              1.4955
  YYZ=              0.6110  XYZ=             -0.3641
 Hexadecapole moment (field-independent basis, Debye-Ang**3):
 XXXX=          -2435.7153 YYYY=           -693.4925 ZZZZ=           -166.6414 XXXY=              2.3047
 XXXZ=             14.7514 YYYX=            -11.0527 YYYZ=             -1.4214 ZZZX=              2.8119
 ZZZY=             -0.6411 XXYY=           -520.1244 XXZZ=           -449.2338 YYZZ=           -138.3649
 XXYZ=             -4.2785 YYXZ=              0.5785 ZZXY=              5.9188
 N-N= 5.190880327046D+02 E-N=-1.942888804536D+03  KE= 3.887471637277D+02
 No NMR shielding tensors so no spin-rotation constants.
 Leave Link  601 at Fri Sep 17 15:09:37 2021, MaxMem=   524288000 cpu:               0.2 elap:               0.2
 (Enter /opt/gaussian/g16_legacy/l9999.exe)
 1\1\GINC-TRUENO93\FOpt\RMP2-FC\6-31G(d,p)\C10H18\JRAMOS\17-Sep-2021\0\
 \#p opt mp2/6-31g(d,p)\\Conformer number 2566. Energy MM = 23.242 kcal
 /mol\\0,1\C,0.9551707408,0.4799015593,-0.4758861599\H,1.0606127218,1.3
 993992801,-1.0588900918\H,0.8863446212,0.7876604714,0.5686533943\C,2.1
 535825687,-0.4037882161,-0.7146144359\C,2.7649547155,-0.3105934925,-2.
 0861063902\H,3.1623285053,0.6905360949,-2.2668232661\H,2.0190124936,-0
 .5007033095,-2.8610294138\H,3.5745746465,-1.028146298,-2.2131993631\C,
 2.6328428908,-1.2670011006,0.2003307852\H,3.4854775817,-1.8785880696,-
 0.0816596708\C,2.1150595018,-1.4871311913,1.5893539881\H,2.8882784195,
 -1.2813775096,2.3320245341\H,1.256363999,-0.859088596,1.815604998\H,1.
 8115171037,-2.5266745494,1.7268951447\C,-2.28794987,-0.0487469541,1.55
 294745\H,-2.182535265,0.5825345599,2.4379371765\H,-1.4488464097,-0.739
 5605301,1.5323138524\H,-3.2042302179,-0.6282712707,1.6862099114\C,-2.3
 774490511,0.8031819346,0.3172003474\C,-3.4999727369,1.8038590486,0.323
 125349\H,-3.5182888373,2.3899954813,-0.5944078123\H,-3.4047611618,2.49
 0910944,1.1669870537\H,-4.4654376023,1.303984918,0.4294170665\C,-1.542
 115528,0.7069956014,-0.7343374759\H,-1.6968081507,1.3959513078,-1.5609
 226541\C,-0.3641952777,-0.2118096411,-0.8691942456\H,-0.4833805796,-1.
 1071920079,-0.2578685377\H,-0.2903498219,-0.5562384648,-1.9041615341\\
 Version=EM64L-G16RevA.03\State=1-A\HF=-389.1567534\MP2=-390.5738646\RM
 SD=5.142e-09\RMSF=3.195e-06\Dipole=-0.0819249,0.0130244,0.0814504\PG=C
 01 [X(C10H18)]\\@


 Life may have no meaning.  Or even worse, it may have a
 meaning of which I disapprove.
                                 -- Ashleigh Brilliant
 Job cpu time:       0 days  0 hours 47 minutes 41.6 seconds.
 Elapsed time:       0 days  0 hours 47 minutes 45.1 seconds.
 File lengths (MBytes):  RWF=     32 Int=      0 D2E=      0 Chk=      7 Scr=      1
 Normal termination of Gaussian 16 at Fri Sep 17 15:09:37 2021.
