 Entering Gaussian System, Link 0=/opt/gaussian/g16_legacy/g16
 Input=01-IsoP_536_gaussian.com
 Output=01-IsoP_536_gaussian.log
 Initial command:
 /opt/gaussian/g16_legacy/l1.exe "/scratch-local/jramos/2661426/Gau-18800.inp" -scrdir="/scratch-local/jramos/2661426/"
 Entering Link 1 = /opt/gaussian/g16_legacy/l1.exe PID=     18801.
  
 Copyright (c) 1988,1990,1992,1993,1995,1998,2003,2009,2016,
            Gaussian, Inc.  All Rights Reserved.
  
 This is part of the Gaussian(R) 16 program.  It is based on
 the Gaussian(R) 09 system (copyright 2009, Gaussian, Inc.),
 the Gaussian(R) 03 system (copyright 2003, Gaussian, Inc.),
 the Gaussian(R) 98 system (copyright 1998, Gaussian, Inc.),
 the Gaussian(R) 94 system (copyright 1995, Gaussian, Inc.),
 the Gaussian 92(TM) system (copyright 1992, Gaussian, Inc.),
 the Gaussian 90(TM) system (copyright 1990, Gaussian, Inc.),
 the Gaussian 88(TM) system (copyright 1988, Gaussian, Inc.),
 the Gaussian 86(TM) system (copyright 1986, Carnegie Mellon
 University), and the Gaussian 82(TM) system (copyright 1983,
 Carnegie Mellon University). Gaussian is a federally registered
 trademark of Gaussian, Inc.
  
 This software contains proprietary and confidential information,
 including trade secrets, belonging to Gaussian, Inc.
  
 This software is provided under written license and may be
 used, copied, transmitted, or stored only in accord with that
 written license.
  
 The following legend is applicable only to US Government
 contracts under FAR:
  
                    RESTRICTED RIGHTS LEGEND
  
 Use, reproduction and disclosure by the US Government is
 subject to restrictions as set forth in subparagraphs (a)
 and (c) of the Commercial Computer Software - Restricted
 Rights clause in FAR 52.227-19.
  
 Gaussian, Inc.
 340 Quinnipiac St., Bldg. 40, Wallingford CT 06492
  
  
 ---------------------------------------------------------------
 Warning -- This program may not be used in any manner that
 competes with the business of Gaussian, Inc. or will provide
 assistance to any competitor of Gaussian, Inc.  The licensee
 of this program is prohibited from giving any competitor of
 Gaussian, Inc. access to this program.  By using this program,
 the user acknowledges that Gaussian, Inc. is engaged in the
 business of creating and licensing software in the field of
 computational chemistry and represents and warrants to the
 licensee that it is not a competitor of Gaussian, Inc. and that
 it will not use this program in any manner prohibited above.
 ---------------------------------------------------------------
  

 Cite this work as:
 Gaussian 16, Revision A.03,
 M. J. Frisch, G. W. Trucks, H. B. Schlegel, G. E. Scuseria, 
 M. A. Robb, J. R. Cheeseman, G. Scalmani, V. Barone, 
 G. A. Petersson, H. Nakatsuji, X. Li, M. Caricato, A. V. Marenich, 
 J. Bloino, B. G. Janesko, R. Gomperts, B. Mennucci, H. P. Hratchian, 
 J. V. Ortiz, A. F. Izmaylov, J. L. Sonnenberg, D. Williams-Young, 
 F. Ding, F. Lipparini, F. Egidi, J. Goings, B. Peng, A. Petrone, 
 T. Henderson, D. Ranasinghe, V. G. Zakrzewski, J. Gao, N. Rega, 
 G. Zheng, W. Liang, M. Hada, M. Ehara, K. Toyota, R. Fukuda, 
 J. Hasegawa, M. Ishida, T. Nakajima, Y. Honda, O. Kitao, H. Nakai, 
 T. Vreven, K. Throssell, J. A. Montgomery, Jr., J. E. Peralta, 
 F. Ogliaro, M. J. Bearpark, J. J. Heyd, E. N. Brothers, K. N. Kudin, 
 V. N. Staroverov, T. A. Keith, R. Kobayashi, J. Normand, 
 K. Raghavachari, A. P. Rendell, J. C. Burant, S. S. Iyengar, 
 J. Tomasi, M. Cossi, J. M. Millam, M. Klene, C. Adamo, R. Cammi, 
 J. W. Ochterski, R. L. Martin, K. Morokuma, O. Farkas, 
 J. B. Foresman, and D. J. Fox, Gaussian, Inc., Wallingford CT, 2016.
 
 ******************************************
 Gaussian 16:  EM64L-G16RevA.03 25-Dec-2016
                17-Sep-2021 
 ******************************************
 %chk=01-IsoP_536_gaussian.chk
 %nproc=1
 Will use up to    1 processors via shared memory.
 %mem=4000Mb
 ---------------------
 #p opt mp2/6-31g(d,p)
 ---------------------
 1/18=20,19=15,38=1/1,3;
 2/9=110,12=2,17=6,18=5,40=1/2;
 3/5=1,6=6,7=101,11=9,25=1,30=1,71=1/1,2,3;
 4//1;
 5/5=2,38=5/2;
 8/6=4,10=2/1;
 9/15=2,16=-3/6;
 10/5=1/2;
 6/7=2,8=2,9=2,10=2/1;
 7/12=2/1,2,3,16;
 1/18=20,19=15/3(2);
 2/9=110/2;
 99//99;
 2/9=110/2;
 3/5=1,6=6,7=101,11=9,25=1,30=1,71=1/1,2,3;
 4/5=5,16=3,69=1/1;
 5/5=2,38=5/2;
 8/6=4,10=2/1;
 9/15=2,16=-3/6;
 10/5=1/2;
 7/12=2/1,2,3,16;
 1/18=20,19=15/3(-8);
 2/9=110/2;
 6/7=2,8=2,9=2,10=2/1;
 99//99;
 Leave Link    1 at Fri Sep 17 15:59:33 2021, MaxMem=   524288000 cpu:               0.0 elap:               0.1
 (Enter /opt/gaussian/g16_legacy/l101.exe)
 -------------------------------------------------
 Conformer number 536. Energy MM = 23.242 kcal/mol
 -------------------------------------------------
 Symbolic Z-matrix:
 Charge =  0 Multiplicity = 1
 C                    -0.9738   -0.7767    0.1605 
 H                    -0.6484   -0.9046   -0.8789 
 H                    -1.1187   -1.798     0.5377 
 C                    -2.2947   -0.0373    0.2179 
 C                    -3.1586   -0.3649    1.4087 
 H                    -2.6395   -0.1136    2.3389 
 H                    -3.3989   -1.433     1.421 
 H                    -4.1046    0.1868    1.3992 
 C                    -2.7179    0.8381   -0.7154 
 H                    -3.697     1.3      -0.5911 
 C                    -1.983     1.2935   -1.9364 
 H                    -1.9638    2.3878   -1.9631 
 H                    -2.4992    0.9401   -2.8341 
 H                    -0.9471    0.9495   -1.9752 
 C                     2.6182    0.6256   -0.7878 
 H                     3.3551    1.3498   -0.4258 
 H                     1.6738    1.153    -0.9394 
 H                     2.9417    0.2671   -1.771 
 C                     2.5119   -0.5273    0.1721 
 C                     3.7519   -1.3784    0.2581 
 H                     3.9832   -1.8122   -0.7203 
 H                     3.6419   -2.2033    0.9698 
 H                     4.6048   -0.7726    0.5813 
 C                     1.4219   -0.8253    0.906 
 H                     1.4565   -1.7003    1.5553 
 C                     0.1207   -0.0703    0.9667 
 H                    -0.1755    0.0016    2.0209 
 H                     0.2392    0.9629    0.6243 
 
 ITRead=  0  0  0  0  0  0  0  0  0  0  0  0  0  0  0  0  0  0  0  0
 ITRead=  0  0  0  0  0  0  0  0
 MicOpt= -1 -1 -1 -1 -1 -1 -1 -1 -1 -1 -1 -1 -1 -1 -1 -1 -1 -1 -1 -1
 MicOpt= -1 -1 -1 -1 -1 -1 -1 -1
 NAtoms=     28 NQM=       28 NQMF=       0 NMMI=      0 NMMIF=      0
                NMic=       0 NMicF=      0.
                    Isotopes and Nuclear Properties:
 (Nuclear quadrupole moments (NQMom) in fm**2, nuclear magnetic moments (NMagM)
  in nuclear magnetons)

  Atom         1           2           3           4           5           6           7           8           9          10
 IAtWgt=          12           1           1          12          12           1           1           1          12           1
 AtmWgt=  12.0000000   1.0078250   1.0078250  12.0000000  12.0000000   1.0078250   1.0078250   1.0078250  12.0000000   1.0078250
 NucSpn=           0           1           1           0           0           1           1           1           0           1
 AtZEff=  -0.0000000  -0.0000000  -0.0000000  -0.0000000  -0.0000000  -0.0000000  -0.0000000  -0.0000000  -0.0000000  -0.0000000
 NQMom=    0.0000000   0.0000000   0.0000000   0.0000000   0.0000000   0.0000000   0.0000000   0.0000000   0.0000000   0.0000000
 NMagM=    0.0000000   2.7928460   2.7928460   0.0000000   0.0000000   2.7928460   2.7928460   2.7928460   0.0000000   2.7928460
 AtZNuc=   6.0000000   1.0000000   1.0000000   6.0000000   6.0000000   1.0000000   1.0000000   1.0000000   6.0000000   1.0000000

  Atom        11          12          13          14          15          16          17          18          19          20
 IAtWgt=          12           1           1           1          12           1           1           1          12          12
 AtmWgt=  12.0000000   1.0078250   1.0078250   1.0078250  12.0000000   1.0078250   1.0078250   1.0078250  12.0000000  12.0000000
 NucSpn=           0           1           1           1           0           1           1           1           0           0
 AtZEff=  -0.0000000  -0.0000000  -0.0000000  -0.0000000  -0.0000000  -0.0000000  -0.0000000  -0.0000000  -0.0000000  -0.0000000
 NQMom=    0.0000000   0.0000000   0.0000000   0.0000000   0.0000000   0.0000000   0.0000000   0.0000000   0.0000000   0.0000000
 NMagM=    0.0000000   2.7928460   2.7928460   2.7928460   0.0000000   2.7928460   2.7928460   2.7928460   0.0000000   0.0000000
 AtZNuc=   6.0000000   1.0000000   1.0000000   1.0000000   6.0000000   1.0000000   1.0000000   1.0000000   6.0000000   6.0000000

  Atom        21          22          23          24          25          26          27          28
 IAtWgt=           1           1           1          12           1          12           1           1
 AtmWgt=   1.0078250   1.0078250   1.0078250  12.0000000   1.0078250  12.0000000   1.0078250   1.0078250
 NucSpn=           1           1           1           0           1           0           1           1
 AtZEff=  -0.0000000  -0.0000000  -0.0000000  -0.0000000  -0.0000000  -0.0000000  -0.0000000  -0.0000000
 NQMom=    0.0000000   0.0000000   0.0000000   0.0000000   0.0000000   0.0000000   0.0000000   0.0000000
 NMagM=    2.7928460   2.7928460   2.7928460   0.0000000   2.7928460   0.0000000   2.7928460   2.7928460
 AtZNuc=   1.0000000   1.0000000   1.0000000   6.0000000   1.0000000   6.0000000   1.0000000   1.0000000
 Leave Link  101 at Fri Sep 17 15:59:33 2021, MaxMem=   524288000 cpu:               0.1 elap:               0.1
 (Enter /opt/gaussian/g16_legacy/l103.exe)

 GradGradGradGradGradGradGradGradGradGradGradGradGradGradGradGradGradGrad
 Berny optimization.
 Initialization pass.
                           ----------------------------
                           !    Initial Parameters    !
                           ! (Angstroms and Degrees)  !
 --------------------------                            --------------------------
 ! Name  Definition              Value          Derivative Info.                !
 --------------------------------------------------------------------------------
 ! R1    R(1,2)                  1.0966         estimate D2E/DX2                !
 ! R2    R(1,3)                  1.0983         estimate D2E/DX2                !
 ! R3    R(1,4)                  1.5149         estimate D2E/DX2                !
 ! R4    R(1,26)                 1.532          estimate D2E/DX2                !
 ! R5    R(4,5)                  1.5072         estimate D2E/DX2                !
 ! R6    R(4,9)                  1.3478         estimate D2E/DX2                !
 ! R7    R(5,6)                  1.0945         estimate D2E/DX2                !
 ! R8    R(5,7)                  1.0949         estimate D2E/DX2                !
 ! R9    R(5,8)                  1.0952         estimate D2E/DX2                !
 ! R10   R(9,10)                 1.0897         estimate D2E/DX2                !
 ! R11   R(9,11)                 1.4961         estimate D2E/DX2                !
 ! R12   R(11,12)                1.0948         estimate D2E/DX2                !
 ! R13   R(11,13)                1.0942         estimate D2E/DX2                !
 ! R14   R(11,14)                1.0922         estimate D2E/DX2                !
 ! R15   R(15,16)                1.0948         estimate D2E/DX2                !
 ! R16   R(15,17)                1.0923         estimate D2E/DX2                !
 ! R17   R(15,18)                1.0954         estimate D2E/DX2                !
 ! R18   R(15,19)                1.504          estimate D2E/DX2                !
 ! R19   R(19,20)                1.5064         estimate D2E/DX2                !
 ! R20   R(19,24)                1.3474         estimate D2E/DX2                !
 ! R21   R(20,21)                1.095          estimate D2E/DX2                !
 ! R22   R(20,22)                1.095          estimate D2E/DX2                !
 ! R23   R(20,23)                1.0949         estimate D2E/DX2                !
 ! R24   R(24,25)                1.0901         estimate D2E/DX2                !
 ! R25   R(24,26)                1.5056         estimate D2E/DX2                !
 ! R26   R(26,27)                1.0974         estimate D2E/DX2                !
 ! R27   R(26,28)                1.0949         estimate D2E/DX2                !
 ! A1    A(2,1,3)              104.8449         estimate D2E/DX2                !
 ! A2    A(2,1,4)              110.5838         estimate D2E/DX2                !
 ! A3    A(2,1,26)             109.9119         estimate D2E/DX2                !
 ! A4    A(3,1,4)              109.0151         estimate D2E/DX2                !
 ! A5    A(3,1,26)             110.0167         estimate D2E/DX2                !
 ! A6    A(4,1,26)             112.2076         estimate D2E/DX2                !
 ! A7    A(1,4,5)              115.0646         estimate D2E/DX2                !
 ! A8    A(1,4,9)              124.3738         estimate D2E/DX2                !
 ! A9    A(5,4,9)              120.5512         estimate D2E/DX2                !
 ! A10   A(4,5,6)              110.4705         estimate D2E/DX2                !
 ! A11   A(4,5,7)              110.2868         estimate D2E/DX2                !
 ! A12   A(4,5,8)              112.2572         estimate D2E/DX2                !
 ! A13   A(6,5,7)              108.5747         estimate D2E/DX2                !
 ! A14   A(6,5,8)              107.5415         estimate D2E/DX2                !
 ! A15   A(7,5,8)              107.5752         estimate D2E/DX2                !
 ! A16   A(4,9,10)             118.5849         estimate D2E/DX2                !
 ! A17   A(4,9,11)             127.4895         estimate D2E/DX2                !
 ! A18   A(10,9,11)            113.9178         estimate D2E/DX2                !
 ! A19   A(9,11,12)            109.4372         estimate D2E/DX2                !
 ! A20   A(9,11,13)            109.8479         estimate D2E/DX2                !
 ! A21   A(9,11,14)            113.5161         estimate D2E/DX2                !
 ! A22   A(12,11,13)           108.1257         estimate D2E/DX2                !
 ! A23   A(12,11,14)           107.2964         estimate D2E/DX2                !
 ! A24   A(13,11,14)           108.456          estimate D2E/DX2                !
 ! A25   A(16,15,17)           107.9672         estimate D2E/DX2                !
 ! A26   A(16,15,18)           108.3312         estimate D2E/DX2                !
 ! A27   A(16,15,19)           110.098          estimate D2E/DX2                !
 ! A28   A(17,15,18)           106.7863         estimate D2E/DX2                !
 ! A29   A(17,15,19)           113.4294         estimate D2E/DX2                !
 ! A30   A(18,15,19)           110.0519         estimate D2E/DX2                !
 ! A31   A(15,19,20)           114.2899         estimate D2E/DX2                !
 ! A32   A(15,19,24)           125.0546         estimate D2E/DX2                !
 ! A33   A(20,19,24)           120.6527         estimate D2E/DX2                !
 ! A34   A(19,20,21)           110.2854         estimate D2E/DX2                !
 ! A35   A(19,20,22)           112.335          estimate D2E/DX2                !
 ! A36   A(19,20,23)           110.2088         estimate D2E/DX2                !
 ! A37   A(21,20,22)           107.6694         estimate D2E/DX2                !
 ! A38   A(21,20,23)           108.5664         estimate D2E/DX2                !
 ! A39   A(22,20,23)           107.6494         estimate D2E/DX2                !
 ! A40   A(19,24,25)           118.4411         estimate D2E/DX2                !
 ! A41   A(19,24,26)           127.6032         estimate D2E/DX2                !
 ! A42   A(25,24,26)           113.9484         estimate D2E/DX2                !
 ! A43   A(1,26,24)            111.4081         estimate D2E/DX2                !
 ! A44   A(1,26,27)            110.0549         estimate D2E/DX2                !
 ! A45   A(1,26,28)            110.3577         estimate D2E/DX2                !
 ! A46   A(24,26,27)           107.7496         estimate D2E/DX2                !
 ! A47   A(24,26,28)           111.5346         estimate D2E/DX2                !
 ! A48   A(27,26,28)           105.5337         estimate D2E/DX2                !
 ! D1    D(2,1,4,5)            151.414          estimate D2E/DX2                !
 ! D2    D(2,1,4,9)            -27.4137         estimate D2E/DX2                !
 ! D3    D(3,1,4,5)             36.6491         estimate D2E/DX2                !
 ! D4    D(3,1,4,9)           -142.1786         estimate D2E/DX2                !
 ! D5    D(26,1,4,5)           -85.4747         estimate D2E/DX2                !
 ! D6    D(26,1,4,9)            95.6977         estimate D2E/DX2                !
 ! D7    D(2,1,26,24)          -56.9449         estimate D2E/DX2                !
 ! D8    D(2,1,26,27)         -176.3979         estimate D2E/DX2                !
 ! D9    D(2,1,26,28)           67.5275         estimate D2E/DX2                !
 ! D10   D(3,1,26,24)           58.0144         estimate D2E/DX2                !
 ! D11   D(3,1,26,27)          -61.4386         estimate D2E/DX2                !
 ! D12   D(3,1,26,28)         -177.5133         estimate D2E/DX2                !
 ! D13   D(4,1,26,24)          179.5665         estimate D2E/DX2                !
 ! D14   D(4,1,26,27)           60.1135         estimate D2E/DX2                !
 ! D15   D(4,1,26,28)          -55.9612         estimate D2E/DX2                !
 ! D16   D(1,4,5,6)             60.5341         estimate D2E/DX2                !
 ! D17   D(1,4,5,7)            -59.4982         estimate D2E/DX2                !
 ! D18   D(1,4,5,8)           -179.4404         estimate D2E/DX2                !
 ! D19   D(9,4,5,6)           -120.5895         estimate D2E/DX2                !
 ! D20   D(9,4,5,7)            119.3782         estimate D2E/DX2                !
 ! D21   D(9,4,5,8)             -0.564          estimate D2E/DX2                !
 ! D22   D(1,4,9,10)           178.6008         estimate D2E/DX2                !
 ! D23   D(1,4,9,11)            -2.4855         estimate D2E/DX2                !
 ! D24   D(5,4,9,10)            -0.1661         estimate D2E/DX2                !
 ! D25   D(5,4,9,11)           178.7476         estimate D2E/DX2                !
 ! D26   D(4,9,11,12)         -127.749          estimate D2E/DX2                !
 ! D27   D(4,9,11,13)          113.6884         estimate D2E/DX2                !
 ! D28   D(4,9,11,14)           -7.921          estimate D2E/DX2                !
 ! D29   D(10,9,11,12)          51.2075         estimate D2E/DX2                !
 ! D30   D(10,9,11,13)         -67.3551         estimate D2E/DX2                !
 ! D31   D(10,9,11,14)         171.0354         estimate D2E/DX2                !
 ! D32   D(16,15,19,20)        -66.556          estimate D2E/DX2                !
 ! D33   D(16,15,19,24)        114.0546         estimate D2E/DX2                !
 ! D34   D(17,15,19,20)        172.3424         estimate D2E/DX2                !
 ! D35   D(17,15,19,24)         -7.047          estimate D2E/DX2                !
 ! D36   D(18,15,19,20)         52.789          estimate D2E/DX2                !
 ! D37   D(18,15,19,24)       -126.6003         estimate D2E/DX2                !
 ! D38   D(15,19,20,21)        -60.2568         estimate D2E/DX2                !
 ! D39   D(15,19,20,22)        179.631          estimate D2E/DX2                !
 ! D40   D(15,19,20,23)         59.5967         estimate D2E/DX2                !
 ! D41   D(24,19,20,21)        119.1622         estimate D2E/DX2                !
 ! D42   D(24,19,20,22)         -0.9501         estimate D2E/DX2                !
 ! D43   D(24,19,20,23)       -120.9843         estimate D2E/DX2                !
 ! D44   D(15,19,24,25)        178.8295         estimate D2E/DX2                !
 ! D45   D(15,19,24,26)         -2.2201         estimate D2E/DX2                !
 ! D46   D(20,19,24,25)         -0.5235         estimate D2E/DX2                !
 ! D47   D(20,19,24,26)        178.4269         estimate D2E/DX2                !
 ! D48   D(19,24,26,1)         103.3714         estimate D2E/DX2                !
 ! D49   D(19,24,26,27)       -135.8155         estimate D2E/DX2                !
 ! D50   D(19,24,26,28)        -20.4366         estimate D2E/DX2                !
 ! D51   D(25,24,26,1)         -77.6384         estimate D2E/DX2                !
 ! D52   D(25,24,26,27)         43.1746         estimate D2E/DX2                !
 ! D53   D(25,24,26,28)        158.5536         estimate D2E/DX2                !
 --------------------------------------------------------------------------------
 Trust Radius=3.00D-01 FncErr=1.00D-07 GrdErr=1.00D-07 EigMax=2.50D+02 EigMin=1.00D-04
 Number of steps in this run=    138 maximum allowed number of steps=    168.
 GradGradGradGradGradGradGradGradGradGradGradGradGradGradGradGradGradGrad

 Leave Link  103 at Fri Sep 17 15:59:33 2021, MaxMem=   524288000 cpu:               0.0 elap:               0.1
 (Enter /opt/gaussian/g16_legacy/l202.exe)
                          Input orientation:                          
 ---------------------------------------------------------------------
 Center     Atomic      Atomic             Coordinates (Angstroms)
 Number     Number       Type             X           Y           Z
 ---------------------------------------------------------------------
      1          6           0       -0.973800   -0.776700    0.160500
      2          1           0       -0.648400   -0.904600   -0.878900
      3          1           0       -1.118700   -1.798000    0.537700
      4          6           0       -2.294700   -0.037300    0.217900
      5          6           0       -3.158600   -0.364900    1.408700
      6          1           0       -2.639500   -0.113600    2.338900
      7          1           0       -3.398900   -1.433000    1.421000
      8          1           0       -4.104600    0.186800    1.399200
      9          6           0       -2.717900    0.838100   -0.715400
     10          1           0       -3.697000    1.300000   -0.591100
     11          6           0       -1.983000    1.293500   -1.936400
     12          1           0       -1.963800    2.387800   -1.963100
     13          1           0       -2.499200    0.940100   -2.834100
     14          1           0       -0.947100    0.949500   -1.975200
     15          6           0        2.618200    0.625600   -0.787800
     16          1           0        3.355100    1.349800   -0.425800
     17          1           0        1.673800    1.153000   -0.939400
     18          1           0        2.941700    0.267100   -1.771000
     19          6           0        2.511900   -0.527300    0.172100
     20          6           0        3.751900   -1.378400    0.258100
     21          1           0        3.983200   -1.812200   -0.720300
     22          1           0        3.641900   -2.203300    0.969800
     23          1           0        4.604800   -0.772600    0.581300
     24          6           0        1.421900   -0.825300    0.906000
     25          1           0        1.456500   -1.700300    1.555300
     26          6           0        0.120700   -0.070300    0.966700
     27          1           0       -0.175500    0.001600    2.020900
     28          1           0        0.239200    0.962900    0.624300
 ---------------------------------------------------------------------
                    Distance matrix (angstroms):
                    1          2          3          4          5
     1  C    0.000000
     2  H    1.096629   0.000000
     3  H    1.098330   1.739569   0.000000
     4  C    1.514854   2.159973   2.141334   0.000000
     5  C    2.549693   3.438822   2.640759   1.507199   0.000000
     6  H    2.821291   3.865798   2.897302   2.150198   1.094481
     7  H    2.810818   3.624086   2.472399   2.148182   1.094867
     8  H    3.502088   4.280913   3.687440   2.172885   1.095162
     9  C    2.533114   2.710455   3.328171   1.347766   2.480570
    10  H    3.506195   3.773202   4.185621   2.099833   2.657248
    11  C    3.114675   2.780487   4.052846   2.551312   3.914335
    12  H    3.937491   3.707515   4.948648   3.278318   4.513750
    13  H    3.773841   3.263615   4.557632   3.211205   4.487670
    14  H    2.746214   2.174576   3.727314   2.756717   4.250783
    15  C    3.970917   3.608391   4.647065   5.058404   6.259163
    16  H    4.858511   4.616885   5.554445   5.853088   6.980965
    17  H    3.455909   3.103223   4.322995   4.301761   5.582982
    18  H    4.489026   3.880405   5.107013   5.609658   6.908225
    19  C    3.494630   3.351783   3.863884   4.831729   5.806042
    20  C    4.764851   4.569452   4.896630   6.193669   7.078564
    21  H    5.140031   4.722352   5.254726   6.591094   7.591615
    22  H    4.898453   4.848813   4.797321   6.363971   7.058268
    23  H    5.594450   5.453964   5.814791   6.948081   7.818004
    24  C    2.509484   2.734648   2.745257   3.861029   4.630945
    25  H    2.950400   3.314977   2.770688   4.315751   4.806655
    26  C    1.531956   2.166520   2.169124   2.529021   3.322042
    27  H    2.168899   3.074683   2.515565   2.782684   3.067246
    28  H    2.170873   2.556365   3.077980   2.754308   3.731405
                    6          7          8          9         10
     6  H    0.000000
     7  H    1.777652   0.000000
     8  H    1.766294   1.766986   0.000000
     9  C    3.200098   3.191530   2.611257   0.000000
    10  H    3.420741   3.406861   2.316602   1.089697   0.000000
    11  C    4.548529   4.550902   4.105143   1.496098   2.178915
    12  H    5.022029   5.301901   4.553294   2.127673   2.463671
    13  H    5.281089   4.954487   4.589728   2.132399   2.568132
    14  H    4.754562   4.818901   4.683812   2.176060   3.098473
    15  C    6.161662   6.732171   7.083188   5.340820   6.354153
    16  H    6.761681   7.534664   7.767259   6.101396   7.054213
    17  H    5.563819   6.163698   6.308130   4.408670   5.384089
    18  H    6.941614   7.299480   7.727028   5.785448   6.821392
    19  C    5.603846   6.108813   6.767111   5.477479   6.517050
    20  C    6.839550   7.244947   8.091758   6.907886   7.961223
    21  H    7.490267   7.695736   8.596557   7.206168   8.287820
    22  H    6.759975   7.097169   8.118203   7.248246   8.280638
    23  H    7.483537   8.074679   8.800174   7.609055   8.636555
    24  C    4.365168   4.886168   5.640017   4.746976   5.741197
    25  H    4.461935   4.864606   5.874636   5.387501   6.337775
    26  C    3.082777   3.801437   4.255152   3.422324   4.345031
    27  H    2.487105   3.578864   3.982290   3.827645   4.572674
    28  H    3.519321   4.428413   4.480112   3.248817   4.133341
                   11         12         13         14         15
    11  C    0.000000
    12  H    1.094794   0.000000
    13  H    1.094175   1.772323   0.000000
    14  H    1.092213   1.761401   1.773926   0.000000
    15  C    4.789198   5.047911   5.520329   3.771763   0.000000
    16  H    5.548008   5.633066   6.343547   4.590186   1.094775
    17  H    3.792880   3.975528   4.587935   2.825493   1.092257
    18  H    5.033242   5.347729   5.584488   3.953496   1.095380
    19  C    5.288214   5.752285   6.025083   4.330879   1.503957
    20  C    6.696563   7.196334   7.349381   5.699767   2.528873
    21  H    6.835189   7.385889   7.352878   5.788749   2.794754
    22  H    7.232780   7.816903   7.878054   6.298579   3.484221
    23  H    7.348925   7.720661   8.066295   6.350190   2.788544
    24  C    4.915475   5.478933   5.699124   4.130786   2.530850
    25  H    5.743254   6.386717   6.471948   5.026247   3.499925
    26  C    3.835817   4.355585   4.725554   3.291651   3.130504
    27  H    4.538313   4.976366   5.463642   4.178839   4.010353
    28  H    3.406560   3.684859   4.411336   2.857427   2.787013
                   16         17         18         19         20
    16  H    0.000000
    17  H    1.768978   0.000000
    18  H    1.775585   1.756117   0.000000
    19  C    2.142889   2.182029   2.142764   0.000000
    20  C    2.840466   3.487190   2.735204   1.506442   0.000000
    21  H    3.237203   3.764803   2.551898   2.147573   1.094965
    22  H    3.828116   4.333960   3.755681   2.173063   1.095024
    23  H    2.660936   3.822463   3.062710   2.146590   1.094938
    24  C    3.200315   2.717099   3.266414   1.347410   2.480845
    25  H    4.102749   3.796323   4.140139   2.098342   2.656164
    26  C    3.796983   2.746234   3.945489   2.560874   3.924137
    27  H    4.502124   3.675460   4.915886   3.304530   4.520656
    28  H    3.310776   2.130580   3.677650   2.755058   4.237316
                   21         22         23         24         25
    21  H    0.000000
    22  H    1.768017   0.000000
    23  H    1.778009   1.767770   0.000000
    24  C    3.190467   2.613686   3.199853   0.000000
    25  H    3.402218   2.317713   3.423609   1.090143   0.000000
    26  C    4.560602   4.116861   4.555097   1.505600   2.188084
    27  H    5.300833   4.531991   5.052039   2.116235   2.403471
    28  H    4.850429   4.660747   4.698114   2.162358   3.072656
                   26         27         28
    26  C    0.000000
    27  H    1.097379   0.000000
    28  H    1.094889   1.745441   0.000000
 Stoichiometry    C10H18
 Framework group  C1[X(C10H18)]
 Deg. of freedom    78
 Full point group                 C1      NOp   1
 Largest Abelian subgroup         C1      NOp   1
 Largest concise Abelian subgroup C1      NOp   1
                         Standard orientation:                         
 ---------------------------------------------------------------------
 Center     Atomic      Atomic             Coordinates (Angstroms)
 Number     Number       Type             X           Y           Z
 ---------------------------------------------------------------------
      1          6           0        0.793757   -0.586536    0.589140
      2          1           0        0.484589    0.235313    1.246084
      3          1           0        0.745953   -1.484313    1.220045
      4          6           0        2.220913   -0.386948    0.122050
      5          6           0        2.975652   -1.655022   -0.184559
      6          1           0        2.478779   -2.212179   -0.984923
      7          1           0        3.025286   -2.291708    0.704767
      8          1           0        4.003244   -1.458209   -0.508129
      9          6           0        2.820193    0.813903   -0.001616
     10          1           0        3.860385    0.846694   -0.324670
     11          6           0        2.215686    2.161869    0.234752
     12          1           0        2.388678    2.797175   -0.639910
     13          1           0        2.690837    2.635733    1.098988
     14          1           0        1.137431    2.131941    0.406215
     15          6           0       -2.465945    1.425960   -0.456031
     16          1           0       -3.076352    1.626178   -1.342511
     17          1           0       -1.439604    1.725930   -0.678892
     18          1           0       -2.815304    2.072731    0.356061
     19          6           0       -2.593429   -0.018261   -0.056205
     20          6           0       -3.965076   -0.407984    0.429662
     21          1           0       -4.236998    0.181208    1.311626
     22          1           0       -4.023687   -1.466006    0.705763
     23          1           0       -4.709064   -0.227464   -0.353144
     24          6           0       -1.596336   -0.923589   -0.097419
     25          1           0       -1.803992   -1.940222    0.236868
     26          6           0       -0.185949   -0.715518   -0.581513
     27          1           0        0.084231   -1.577096   -1.205153
     28          1           0       -0.111205    0.157045   -1.238651
 ---------------------------------------------------------------------
 Rotational constants (GHZ):           2.2181253           0.5802384           0.4854277
 Leave Link  202 at Fri Sep 17 15:59:33 2021, MaxMem=   524288000 cpu:               0.0 elap:               0.1
 (Enter /opt/gaussian/g16_legacy/l301.exe)
 Standard basis: 6-31G(d,p) (6D, 7F)
 Ernie: Thresh=  0.10000D-02 Tol=  0.10000D-05 Strict=F.
 There are   240 symmetry adapted cartesian basis functions of A   symmetry.
 There are   240 symmetry adapted basis functions of A   symmetry.
   240 basis functions,   406 primitive gaussians,   240 cartesian basis functions
    39 alpha electrons       39 beta electrons
       nuclear repulsion energy       516.4374461250 Hartrees.
 IExCor=    0 DFT=F Ex=HF Corr=None ExCW=0 ScaHFX=  1.000000
 ScaDFX=  1.000000  1.000000  1.000000  1.000000 ScalE2=  1.000000  1.000000
 IRadAn=      5 IRanWt=     -1 IRanGd=            0 ICorTp=0 IEmpDi=  4
 NAtoms=   28 NActive=   28 NUniq=   28 SFac= 1.00D+00 NAtFMM=   60 NAOKFM=F Big=F
 Integral buffers will be    131072 words long.
 Raffenetti 1 integral format.
 Two-electron integral symmetry is turned on.
 Leave Link  301 at Fri Sep 17 15:59:33 2021, MaxMem=   524288000 cpu:               0.0 elap:               0.1
 (Enter /opt/gaussian/g16_legacy/l302.exe)
 NPDir=0 NMtPBC=     1 NCelOv=     1 NCel=       1 NClECP=     1 NCelD=      1
         NCelK=      1 NCelE2=     1 NClLst=     1 CellRange=     0.0.
 One-electron integrals computed using PRISM.
 One-electron integral symmetry used in STVInt
 NBasis=   240 RedAO= T EigKep=  2.10D-03  NBF=   240
 NBsUse=   240 1.00D-06 EigRej= -1.00D+00 NBFU=   240
 Leave Link  302 at Fri Sep 17 15:59:34 2021, MaxMem=   524288000 cpu:               0.2 elap:               0.4
 (Enter /opt/gaussian/g16_legacy/l303.exe)
 DipDrv:  MaxL=1.
 Leave Link  303 at Fri Sep 17 15:59:34 2021, MaxMem=   524288000 cpu:               0.0 elap:               0.1
 (Enter /opt/gaussian/g16_legacy/l401.exe)
 ExpMin= 1.61D-01 ExpMax= 3.05D+03 ExpMxC= 4.57D+02 IAcc=3 IRadAn=         5 AccDes= 0.00D+00
 Harris functional with IExCor=  205 and IRadAn=       5 diagonalized for initial guess.
 HarFok:  IExCor=  205 AccDes= 0.00D+00 IRadAn=         5 IDoV= 1 UseB2=F ITyADJ=14
 ICtDFT=  3500011 ScaDFX=  1.000000  1.000000  1.000000  1.000000
 FoFCou: FMM=F IPFlag=           0 FMFlag=      100000 FMFlg1=           0
         NFxFlg=           0 DoJE=T BraDBF=F KetDBF=T FulRan=T
         wScrn=  0.000000 ICntrl=       500 IOpCl=  0 I1Cent=   200000004 NGrid=           0
         NMat0=    1 NMatS0=      1 NMatT0=    0 NMatD0=    1 NMtDS0=    0 NMtDT0=    0
 Petite list used in FoFCou.
 Harris En= -390.109917607905    
 JPrj=0 DoOrth=F DoCkMO=F.
 Leave Link  401 at Fri Sep 17 15:59:41 2021, MaxMem=   524288000 cpu:               6.6 elap:               6.7
 (Enter /opt/gaussian/g16_legacy/l502.exe)
 Keep R1 ints in memory in canonical form, NReq=425198025.
 FoFCou: FMM=F IPFlag=           0 FMFlag=           0 FMFlg1=           0
         NFxFlg=           0 DoJE=F BraDBF=F KetDBF=F FulRan=T
         wScrn=  0.000000 ICntrl=       600 IOpCl=  0 I1Cent=           0 NGrid=           0
         NMat0=    1 NMatS0=  28920 NMatT0=    0 NMatD0=    1 NMtDS0=    0 NMtDT0=    0
 Symmetry not used in FoFCou.
 Two-electron integral symmetry not used.
 Closed shell SCF:
 Using DIIS extrapolation, IDIIS=  1040.
 NGot=   524288000 LenX=   105970886 LenY=   105912845
 Requested convergence on RMS density matrix=1.00D-08 within 128 cycles.
 Requested convergence on MAX density matrix=1.00D-06.
 Requested convergence on             energy=1.00D-06.
 No special actions if energy rises.

 Cycle   1  Pass 1  IDiag  1:
 E= -388.533170295596    
 DIIS: error= 5.21D-02 at cycle   1 NSaved=   1.
 NSaved= 1 IEnMin= 1 EnMin= -388.533170295596     IErMin= 1 ErrMin= 5.21D-02
 ErrMax= 5.21D-02  0.00D+00 EMaxC= 1.00D-01 BMatC= 8.07D-01 BMatP= 8.07D-01
 IDIUse=3 WtCom= 4.79D-01 WtEn= 5.21D-01
 Coeff-Com:  0.100D+01
 Coeff-En:   0.100D+01
 Coeff:      0.100D+01
 Gap=     0.508 Goal=   None    Shift=    0.000
 GapD=    0.508 DampG=2.000 DampE=0.500 DampFc=1.0000 IDamp=-1.
 RMSDP=4.00D-03 MaxDP=1.14D-01              OVMax= 1.33D-01

 Cycle   2  Pass 1  IDiag  1:
 E= -389.073878474798     Delta-E=       -0.540708179202 Rises=F Damp=F
 DIIS: error= 1.59D-02 at cycle   2 NSaved=   2.
 NSaved= 2 IEnMin= 2 EnMin= -389.073878474798     IErMin= 2 ErrMin= 1.59D-02
 ErrMax= 1.59D-02  0.00D+00 EMaxC= 1.00D-01 BMatC= 8.66D-02 BMatP= 8.07D-01
 IDIUse=3 WtCom= 8.41D-01 WtEn= 1.59D-01
 Coeff-Com:  0.183D+00 0.817D+00
 Coeff-En:   0.000D+00 0.100D+01
 Coeff:      0.154D+00 0.846D+00
 Gap=     0.549 Goal=   None    Shift=    0.000
 RMSDP=1.63D-03 MaxDP=3.04D-02 DE=-5.41D-01 OVMax= 4.61D-02

 Cycle   3  Pass 1  IDiag  1:
 E= -389.151437854119     Delta-E=       -0.077559379320 Rises=F Damp=F
 DIIS: error= 3.43D-03 at cycle   3 NSaved=   3.
 NSaved= 3 IEnMin= 3 EnMin= -389.151437854119     IErMin= 3 ErrMin= 3.43D-03
 ErrMax= 3.43D-03  0.00D+00 EMaxC= 1.00D-01 BMatC= 3.14D-03 BMatP= 8.66D-02
 IDIUse=3 WtCom= 9.66D-01 WtEn= 3.43D-02
 Coeff-Com: -0.245D-01 0.106D+00 0.919D+00
 Coeff-En:   0.000D+00 0.000D+00 0.100D+01
 Coeff:     -0.236D-01 0.102D+00 0.921D+00
 Gap=     0.499 Goal=   None    Shift=    0.000
 RMSDP=2.59D-04 MaxDP=7.14D-03 DE=-7.76D-02 OVMax= 1.01D-02

 Cycle   4  Pass 1  IDiag  1:
 E= -389.155063733658     Delta-E=       -0.003625879539 Rises=F Damp=F
 DIIS: error= 5.31D-04 at cycle   4 NSaved=   4.
 NSaved= 4 IEnMin= 4 EnMin= -389.155063733658     IErMin= 4 ErrMin= 5.31D-04
 ErrMax= 5.31D-04  0.00D+00 EMaxC= 1.00D-01 BMatC= 9.29D-05 BMatP= 3.14D-03
 IDIUse=3 WtCom= 9.95D-01 WtEn= 5.31D-03
 Coeff-Com: -0.424D-02-0.188D-02 0.950D-01 0.911D+00
 Coeff-En:   0.000D+00 0.000D+00 0.000D+00 0.100D+01
 Coeff:     -0.422D-02-0.187D-02 0.945D-01 0.912D+00
 Gap=     0.499 Goal=   None    Shift=    0.000
 RMSDP=7.39D-05 MaxDP=1.49D-03 DE=-3.63D-03 OVMax= 3.14D-03

 Cycle   5  Pass 1  IDiag  1:
 E= -389.155188081762     Delta-E=       -0.000124348104 Rises=F Damp=F
 DIIS: error= 1.63D-04 at cycle   5 NSaved=   5.
 NSaved= 5 IEnMin= 5 EnMin= -389.155188081762     IErMin= 5 ErrMin= 1.63D-04
 ErrMax= 1.63D-04  0.00D+00 EMaxC= 1.00D-01 BMatC= 1.60D-05 BMatP= 9.29D-05
 IDIUse=3 WtCom= 9.98D-01 WtEn= 1.63D-03
 Coeff-Com:  0.241D-02-0.152D-01-0.102D+00 0.176D+00 0.939D+00
 Coeff-En:   0.000D+00 0.000D+00 0.000D+00 0.000D+00 0.100D+01
 Coeff:      0.241D-02-0.152D-01-0.102D+00 0.175D+00 0.939D+00
 Gap=     0.500 Goal=   None    Shift=    0.000
 RMSDP=3.00D-05 MaxDP=6.56D-04 DE=-1.24D-04 OVMax= 9.23D-04

 Cycle   6  Pass 1  IDiag  1:
 E= -389.155209565996     Delta-E=       -0.000021484234 Rises=F Damp=F
 DIIS: error= 3.58D-05 at cycle   6 NSaved=   6.
 NSaved= 6 IEnMin= 6 EnMin= -389.155209565996     IErMin= 6 ErrMin= 3.58D-05
 ErrMax= 3.58D-05  0.00D+00 EMaxC= 1.00D-01 BMatC= 5.50D-07 BMatP= 1.60D-05
 IDIUse=1 WtCom= 1.00D+00 WtEn= 0.00D+00
 Coeff-Com:  0.720D-03-0.335D-02-0.261D-01-0.434D-02 0.177D+00 0.856D+00
 Coeff:      0.720D-03-0.335D-02-0.261D-01-0.434D-02 0.177D+00 0.856D+00
 Gap=     0.500 Goal=   None    Shift=    0.000
 RMSDP=5.30D-06 MaxDP=1.61D-04 DE=-2.15D-05 OVMax= 3.23D-04

 Cycle   7  Pass 1  IDiag  1:
 E= -389.155210406925     Delta-E=       -0.000000840929 Rises=F Damp=F
 DIIS: error= 1.03D-05 at cycle   7 NSaved=   7.
 NSaved= 7 IEnMin= 7 EnMin= -389.155210406925     IErMin= 7 ErrMin= 1.03D-05
 ErrMax= 1.03D-05  0.00D+00 EMaxC= 1.00D-01 BMatC= 5.44D-08 BMatP= 5.50D-07
 IDIUse=1 WtCom= 1.00D+00 WtEn= 0.00D+00
 Coeff-Com: -0.494D-04 0.463D-03 0.301D-02-0.105D-01-0.468D-01 0.145D+00
 Coeff-Com:  0.909D+00
 Coeff:     -0.494D-04 0.463D-03 0.301D-02-0.105D-01-0.468D-01 0.145D+00
 Coeff:      0.909D+00
 Gap=     0.500 Goal=   None    Shift=    0.000
 RMSDP=1.71D-06 MaxDP=4.09D-05 DE=-8.41D-07 OVMax= 8.41D-05

 Cycle   8  Pass 1  IDiag  1:
 E= -389.155210495818     Delta-E=       -0.000000088893 Rises=F Damp=F
 DIIS: error= 3.51D-06 at cycle   8 NSaved=   8.
 NSaved= 8 IEnMin= 8 EnMin= -389.155210495818     IErMin= 8 ErrMin= 3.51D-06
 ErrMax= 3.51D-06  0.00D+00 EMaxC= 1.00D-01 BMatC= 5.09D-09 BMatP= 5.44D-08
 IDIUse=1 WtCom= 1.00D+00 WtEn= 0.00D+00
 Coeff-Com: -0.581D-04 0.249D-03 0.207D-02 0.314D-02-0.171D-01-0.803D-01
 Coeff-Com: -0.123D+00 0.121D+01
 Coeff:     -0.581D-04 0.249D-03 0.207D-02 0.314D-02-0.171D-01-0.803D-01
 Coeff:     -0.123D+00 0.121D+01
 Gap=     0.500 Goal=   None    Shift=    0.000
 RMSDP=7.85D-07 MaxDP=2.40D-05 DE=-8.89D-08 OVMax= 5.80D-05

 Cycle   9  Pass 1  IDiag  1:
 E= -389.155210511652     Delta-E=       -0.000000015834 Rises=F Damp=F
 DIIS: error= 1.46D-06 at cycle   9 NSaved=   9.
 NSaved= 9 IEnMin= 9 EnMin= -389.155210511652     IErMin= 9 ErrMin= 1.46D-06
 ErrMax= 1.46D-06  0.00D+00 EMaxC= 1.00D-01 BMatC= 7.38D-10 BMatP= 5.09D-09
 IDIUse=1 WtCom= 1.00D+00 WtEn= 0.00D+00
 Coeff-Com:  0.928D-05-0.689D-04-0.480D-03 0.144D-02 0.385D-02 0.867D-04
 Coeff-Com: -0.865D-01-0.120D+00 0.120D+01
 Coeff:      0.928D-05-0.689D-04-0.480D-03 0.144D-02 0.385D-02 0.867D-04
 Coeff:     -0.865D-01-0.120D+00 0.120D+01
 Gap=     0.500 Goal=   None    Shift=    0.000
 RMSDP=2.99D-07 MaxDP=1.24D-05 DE=-1.58D-08 OVMax= 2.71D-05

 Cycle  10  Pass 1  IDiag  1:
 E= -389.155210514060     Delta-E=       -0.000000002409 Rises=F Damp=F
 DIIS: error= 3.97D-07 at cycle  10 NSaved=  10.
 NSaved=10 IEnMin=10 EnMin= -389.155210514060     IErMin=10 ErrMin= 3.97D-07
 ErrMax= 3.97D-07  0.00D+00 EMaxC= 1.00D-01 BMatC= 1.21D-10 BMatP= 7.38D-10
 IDIUse=1 WtCom= 1.00D+00 WtEn= 0.00D+00
 Coeff-Com:  0.952D-05-0.464D-04-0.369D-03-0.135D-03 0.233D-02 0.142D-01
 Coeff-Com:  0.595D-02-0.211D+00 0.143D+00 0.105D+01
 Coeff:      0.952D-05-0.464D-04-0.369D-03-0.135D-03 0.233D-02 0.142D-01
 Coeff:      0.595D-02-0.211D+00 0.143D+00 0.105D+01
 Gap=     0.500 Goal=   None    Shift=    0.000
 RMSDP=1.24D-07 MaxDP=3.06D-06 DE=-2.41D-09 OVMax= 9.87D-06

 Cycle  11  Pass 1  IDiag  1:
 E= -389.155210514391     Delta-E=       -0.000000000331 Rises=F Damp=F
 DIIS: error= 1.55D-07 at cycle  11 NSaved=  11.
 NSaved=11 IEnMin=11 EnMin= -389.155210514391     IErMin=11 ErrMin= 1.55D-07
 ErrMax= 1.55D-07  0.00D+00 EMaxC= 1.00D-01 BMatC= 9.53D-12 BMatP= 1.21D-10
 IDIUse=1 WtCom= 1.00D+00 WtEn= 0.00D+00
 Coeff-Com:  0.394D-06 0.837D-06 0.998D-06-0.149D-03-0.305D-03 0.278D-02
 Coeff-Com:  0.110D-01-0.153D-01-0.107D+00 0.164D+00 0.945D+00
 Coeff:      0.394D-06 0.837D-06 0.998D-06-0.149D-03-0.305D-03 0.278D-02
 Coeff:      0.110D-01-0.153D-01-0.107D+00 0.164D+00 0.945D+00
 Gap=     0.500 Goal=   None    Shift=    0.000
 RMSDP=2.76D-08 MaxDP=1.16D-06 DE=-3.31D-10 OVMax= 2.51D-06

 Cycle  12  Pass 1  IDiag  1:
 E= -389.155210514407     Delta-E=       -0.000000000016 Rises=F Damp=F
 DIIS: error= 3.64D-08 at cycle  12 NSaved=  12.
 NSaved=12 IEnMin=12 EnMin= -389.155210514407     IErMin=12 ErrMin= 3.64D-08
 ErrMax= 3.64D-08  0.00D+00 EMaxC= 1.00D-01 BMatC= 1.17D-12 BMatP= 9.53D-12
 IDIUse=1 WtCom= 1.00D+00 WtEn= 0.00D+00
 Coeff-Com: -0.102D-05 0.547D-05 0.429D-04 0.324D-05-0.342D-03-0.126D-02
 Coeff-Com:  0.366D-03 0.217D-01-0.321D-01-0.113D+00 0.983D-01 0.103D+01
 Coeff:     -0.102D-05 0.547D-05 0.429D-04 0.324D-05-0.342D-03-0.126D-02
 Coeff:      0.366D-03 0.217D-01-0.321D-01-0.113D+00 0.983D-01 0.103D+01
 Gap=     0.500 Goal=   None    Shift=    0.000
 RMSDP=1.18D-08 MaxDP=3.33D-07 DE=-1.58D-11 OVMax= 8.46D-07

 Cycle  13  Pass 1  IDiag  1:
 E= -389.155210514401     Delta-E=        0.000000000006 Rises=F Damp=F
 DIIS: error= 1.06D-08 at cycle  13 NSaved=  13.
 NSaved=13 IEnMin=12 EnMin= -389.155210514407     IErMin=13 ErrMin= 1.06D-08
 ErrMax= 1.06D-08  0.00D+00 EMaxC= 1.00D-01 BMatC= 5.47D-14 BMatP= 1.17D-12
 IDIUse=1 WtCom= 1.00D+00 WtEn= 0.00D+00
 Coeff-Com: -0.122D-06 0.462D-06 0.389D-05 0.136D-04-0.170D-04-0.298D-03
 Coeff-Com: -0.849D-03 0.352D-02 0.516D-02-0.213D-01-0.612D-01 0.111D+00
 Coeff-Com:  0.964D+00
 Coeff:     -0.122D-06 0.462D-06 0.389D-05 0.136D-04-0.170D-04-0.298D-03
 Coeff:     -0.849D-03 0.352D-02 0.516D-02-0.213D-01-0.612D-01 0.111D+00
 Coeff:      0.964D+00
 Gap=     0.500 Goal=   None    Shift=    0.000
 RMSDP=2.13D-09 MaxDP=7.02D-08 DE= 6.25D-12 OVMax= 1.05D-07

 SCF Done:  E(RHF) =  -389.155210514     A.U. after   13 cycles
            NFock= 13  Conv=0.21D-08     -V/T= 2.0014
 KE= 3.886263332609D+02 PE=-1.937509088471D+03 EE= 6.432900985707D+02
 Leave Link  502 at Fri Sep 17 16:00:05 2021, MaxMem=   524288000 cpu:              24.3 elap:              24.4
 (Enter /opt/gaussian/g16_legacy/l801.exe)
 ExpMin= 1.61D-01 ExpMax= 3.05D+03 ExpMxC= 4.57D+02 IAcc=3 IRadAn=         5 AccDes= 0.00D+00
 HarFok:  IExCor=  205 AccDes= 0.00D+00 IRadAn=         5 IDoV=-2 UseB2=F ITyADJ=14
 ICtDFT= 12500011 ScaDFX=  1.000000  1.000000  1.000000  1.000000
 Largest valence mixing into a core orbital is  1.98D-04
 Largest core mixing into a valence orbital is  3.52D-05
 Range of M.O.s used for correlation:    11   240
 NBasis=   240 NAE=    39 NBE=    39 NFC=    10 NFV=     0
 NROrb=    230 NOA=    29 NOB=    29 NVA=   201 NVB=   201
 Leave Link  801 at Fri Sep 17 16:00:06 2021, MaxMem=   524288000 cpu:               0.9 elap:               0.9
 (Enter /opt/gaussian/g16_legacy/l906.exe)
 Frozen-core derivative calculation, NFC=  10 NFV=   0.
 FulOut=F Deriv=T AODrv=T NAtomX=    28
   MMem=          88  MDisk=          29 MDiskD=          29
  W3Min=     2246400 MinDsk=     2795480 NBas6D=         240
 NBas2D=       29244    NTT=       28920    LW2=     2040000
    MDV=   523626386 MDiskM=       30186 NBas2p=       24383
 Fully direct method using O(ONN) memory.
 IMap=   1   2   3   4   5   6   7   8   9  10  11  12  13  14  15  16  17  18  19  20
 IMap=  21  22  23  24  25  26  27  28  29  30  31  32  33  34  35  36  37  38  39
 JobTyp=1 Pass  1:  I=  11 to  39 NPSUse=  1 ParTrn=F ParDer=F DoDerP=T.
 Spin components of T(2) and E(2):
     alpha-alpha T2 =       0.5715106872D-01 E2=     -0.1638025653D+00
     alpha-beta  T2 =       0.3618115149D+00 E2=     -0.1089335356D+01
     beta-beta   T2 =       0.5715106872D-01 E2=     -0.1638025653D+00
 The integrals were generated   1 times.
 ANorm=    0.1214954177D+01
 E2 =    -0.1416940487D+01 EUMP2 =    -0.39057215100138D+03
 Leave Link  906 at Fri Sep 17 16:02:46 2021, MaxMem=   524288000 cpu:             159.5 elap:             159.5
 (Enter /opt/gaussian/g16_legacy/l1002.exe)
 Minotr:  Closed shell wavefunction.
          Computing MP2/KS-MP2 derivatives.
          Using Z-Vector for PSCF gradient.
          Skipping F1 and S1 gradient terms here.
          IDoAtm=1111111111111111111111111111
          Frozen-core window.
          Direct CPHF calculation.
          Differentiating once with respect to electric field.
                with respect to dipole field.
          Differentiating once with respect to nuclear coordinates.
          Requested convergence is 1.0D-10 RMS, and 1.0D-09 maximum.
          NewPWx=F KeepS1=T KeepF1=T KeepIn=T MapXYZ=F SortEE=F KeepMc=T.
 Keep R1 ints in memory in canonical form, NReq=425201067.
 FoFCou: FMM=F IPFlag=           0 FMFlag=           0 FMFlg1=           0
         NFxFlg=           0 DoJE=F BraDBF=F KetDBF=F FulRan=T
         wScrn=  0.000000 ICntrl=       600 IOpCl=  0 I1Cent=           0 NGrid=           0
         NMat0=    1 NMatS0=  28920 NMatT0=    0 NMatD0=    1 NMtDS0=    0 NMtDT0=    0
 Symmetry not used in FoFCou.
 Two-electron integral symmetry not used.
          MDV=     524288000 using IRadAn=       5.
          Solving linear equations separately, MaxMat=       0.
          There are     1 degrees of freedom in the 1st order CPHF.  IDoFFX=0 NUNeed=     1.
 LinEq1:  Iter=  0 NonCon=     1 RMS=2.55D-03 Max=3.76D-02 NDo=     1
 AX will form     1 AO Fock derivatives at one time.
 LinEq1:  Iter=  1 NonCon=     1 RMS=6.90D-04 Max=9.74D-03 NDo=     1
 LinEq1:  Iter=  2 NonCon=     1 RMS=1.61D-04 Max=4.14D-03 NDo=     1
 LinEq1:  Iter=  3 NonCon=     1 RMS=4.31D-05 Max=5.07D-04 NDo=     1
 LinEq1:  Iter=  4 NonCon=     1 RMS=1.99D-05 Max=8.55D-04 NDo=     1
 LinEq1:  Iter=  5 NonCon=     1 RMS=5.06D-06 Max=8.26D-05 NDo=     1
 LinEq1:  Iter=  6 NonCon=     1 RMS=1.63D-06 Max=2.68D-05 NDo=     1
 LinEq1:  Iter=  7 NonCon=     1 RMS=4.13D-07 Max=4.19D-06 NDo=     1
 LinEq1:  Iter=  8 NonCon=     1 RMS=1.01D-07 Max=1.86D-06 NDo=     1
 LinEq1:  Iter=  9 NonCon=     1 RMS=2.33D-08 Max=6.32D-07 NDo=     1
 LinEq1:  Iter= 10 NonCon=     1 RMS=6.42D-09 Max=1.62D-07 NDo=     1
 LinEq1:  Iter= 11 NonCon=     1 RMS=1.89D-09 Max=3.63D-08 NDo=     1
 LinEq1:  Iter= 12 NonCon=     1 RMS=4.12D-10 Max=7.18D-09 NDo=     1
 LinEq1:  Iter= 13 NonCon=     1 RMS=1.04D-10 Max=9.04D-10 NDo=     1
 LinEq1:  Iter= 14 NonCon=     1 RMS=4.01D-11 Max=1.42D-09 NDo=     1
 LinEq1:  Iter= 15 NonCon=     0 RMS=1.24D-11 Max=1.74D-10 NDo=     1
 Linear equations converged to 1.000D-10 1.000D-09 after    15 iterations.
 End of Minotr F.D. properties file   721 does not exist.
 End of Minotr F.D. properties file   722 does not exist.
 End of Minotr F.D. properties file   788 does not exist.
 Leave Link 1002 at Fri Sep 17 16:03:04 2021, MaxMem=   524288000 cpu:              18.5 elap:              18.5
 (Enter /opt/gaussian/g16_legacy/l601.exe)
 Copying SCF densities to generalized density rwf, IOpCl= 0 IROHF=0.

 **********************************************************************

            Population analysis using the SCF density.

 **********************************************************************

 Orbital symmetries:
       Occupied  (A) (A) (A) (A) (A) (A) (A) (A) (A) (A) (A) (A)
                 (A) (A) (A) (A) (A) (A) (A) (A) (A) (A) (A) (A)
                 (A) (A) (A) (A) (A) (A) (A) (A) (A) (A) (A) (A)
                 (A) (A) (A)
       Virtual   (A) (A) (A) (A) (A) (A) (A) (A) (A) (A) (A) (A)
                 (A) (A) (A) (A) (A) (A) (A) (A) (A) (A) (A) (A)
                 (A) (A) (A) (A) (A) (A) (A) (A) (A) (A) (A) (A)
                 (A) (A) (A) (A) (A) (A) (A) (A) (A) (A) (A) (A)
                 (A) (A) (A) (A) (A) (A) (A) (A) (A) (A) (A) (A)
                 (A) (A) (A) (A) (A) (A) (A) (A) (A) (A) (A) (A)
                 (A) (A) (A) (A) (A) (A) (A) (A) (A) (A) (A) (A)
                 (A) (A) (A) (A) (A) (A) (A) (A) (A) (A) (A) (A)
                 (A) (A) (A) (A) (A) (A) (A) (A) (A) (A) (A) (A)
                 (A) (A) (A) (A) (A) (A) (A) (A) (A) (A) (A) (A)
                 (A) (A) (A) (A) (A) (A) (A) (A) (A) (A) (A) (A)
                 (A) (A) (A) (A) (A) (A) (A) (A) (A) (A) (A) (A)
                 (A) (A) (A) (A) (A) (A) (A) (A) (A) (A) (A) (A)
                 (A) (A) (A) (A) (A) (A) (A) (A) (A) (A) (A) (A)
                 (A) (A) (A) (A) (A) (A) (A) (A) (A) (A) (A) (A)
                 (A) (A) (A) (A) (A) (A) (A) (A) (A) (A) (A) (A)
                 (A) (A) (A) (A) (A) (A) (A) (A) (A)
 The electronic state is 1-A.
 Alpha  occ. eigenvalues --  -11.23060 -11.22505 -11.21999 -11.21921 -11.21883
 Alpha  occ. eigenvalues --  -11.21649 -11.21553 -11.21484 -11.21455 -11.21438
 Alpha  occ. eigenvalues --   -1.10623  -1.08327  -1.01911  -0.98013  -0.93648
 Alpha  occ. eigenvalues --   -0.91775  -0.86755  -0.82685  -0.70599  -0.69342
 Alpha  occ. eigenvalues --   -0.64584  -0.61545  -0.60102  -0.59031  -0.58088
 Alpha  occ. eigenvalues --   -0.56804  -0.55368  -0.55150  -0.53548  -0.51981
 Alpha  occ. eigenvalues --   -0.51716  -0.51322  -0.50592  -0.49229  -0.48276
 Alpha  occ. eigenvalues --   -0.46014  -0.44271  -0.33356  -0.31526
 Alpha virt. eigenvalues --    0.18456   0.19494   0.22039   0.24454   0.25183
 Alpha virt. eigenvalues --    0.27141   0.28395   0.28932   0.30250   0.30504
 Alpha virt. eigenvalues --    0.31238   0.32117   0.33135   0.33436   0.34031
 Alpha virt. eigenvalues --    0.35677   0.35774   0.36970   0.38998   0.40649
 Alpha virt. eigenvalues --    0.41063   0.42593   0.43322   0.44192   0.45150
 Alpha virt. eigenvalues --    0.51684   0.54045   0.61170   0.62446   0.70138
 Alpha virt. eigenvalues --    0.71102   0.71886   0.74280   0.76417   0.76615
 Alpha virt. eigenvalues --    0.76877   0.78795   0.79454   0.81139   0.82036
 Alpha virt. eigenvalues --    0.83811   0.85655   0.88079   0.91266   0.92027
 Alpha virt. eigenvalues --    0.92896   0.95178   0.97058   0.98263   0.99206
 Alpha virt. eigenvalues --    0.99752   1.00203   1.02302   1.03926   1.06182
 Alpha virt. eigenvalues --    1.07864   1.08639   1.08809   1.11200   1.12391
 Alpha virt. eigenvalues --    1.12560   1.13432   1.14584   1.14927   1.15820
 Alpha virt. eigenvalues --    1.16164   1.16403   1.18223   1.18707   1.20093
 Alpha virt. eigenvalues --    1.20662   1.22067   1.22855   1.25020   1.27541
 Alpha virt. eigenvalues --    1.34173   1.40671   1.41850   1.43740   1.45171
 Alpha virt. eigenvalues --    1.47561   1.53476   1.56256   1.56979   1.58248
 Alpha virt. eigenvalues --    1.59851   1.62721   1.65797   1.69519   1.70790
 Alpha virt. eigenvalues --    1.75330   1.82527   1.92035   1.92193   1.95500
 Alpha virt. eigenvalues --    1.98628   2.01127   2.02849   2.04183   2.08702
 Alpha virt. eigenvalues --    2.09241   2.11122   2.11379   2.13103   2.14506
 Alpha virt. eigenvalues --    2.15428   2.17690   2.19727   2.23578   2.27386
 Alpha virt. eigenvalues --    2.28340   2.29992   2.32200   2.34975   2.35568
 Alpha virt. eigenvalues --    2.35647   2.35783   2.39328   2.39851   2.40351
 Alpha virt. eigenvalues --    2.41286   2.41827   2.43039   2.45165   2.45389
 Alpha virt. eigenvalues --    2.47035   2.48341   2.49338   2.50339   2.54526
 Alpha virt. eigenvalues --    2.56588   2.57721   2.61275   2.62185   2.64355
 Alpha virt. eigenvalues --    2.66343   2.67161   2.72033   2.72995   2.73747
 Alpha virt. eigenvalues --    2.75718   2.77700   2.81092   2.82807   2.85160
 Alpha virt. eigenvalues --    2.87729   2.89154   2.91919   2.93442   2.94437
 Alpha virt. eigenvalues --    2.97094   2.99038   3.01167   3.02601   3.05102
 Alpha virt. eigenvalues --    3.05825   3.06636   3.08510   3.13017   3.15942
 Alpha virt. eigenvalues --    3.17143   3.18164   3.19616   3.20684   3.21269
 Alpha virt. eigenvalues --    3.23193   3.24414   3.26465   3.27249   3.36666
 Alpha virt. eigenvalues --    3.39073   3.44608   3.45620   3.55557   3.57298
 Alpha virt. eigenvalues --    3.58701   3.61061   3.66895   3.73953   3.78201
 Alpha virt. eigenvalues --    3.78870   3.80514   3.81332   3.82336   3.82840
 Alpha virt. eigenvalues --    3.84215   3.85756   3.87659   3.89513   3.91173
 Alpha virt. eigenvalues --    3.95899   4.59095   4.62635   4.74430   4.82817
 Alpha virt. eigenvalues --    4.88836   4.92669   4.93352   5.07550   5.10288
 Alpha virt. eigenvalues --    5.16870
          Condensed to atoms (all electrons):
               1          2          3          4          5          6
     1  C    5.001834   0.412348   0.413513   0.340280  -0.058752  -0.000531
     2  H    0.412348   0.571727  -0.030232  -0.040538   0.003238  -0.000030
     3  H    0.413513  -0.030232   0.588472  -0.045051  -0.004690  -0.000276
     4  C    0.340280  -0.040538  -0.045051   4.955064   0.349338  -0.045809
     5  C   -0.058752   0.003238  -0.004690   0.349338   4.896451   0.400286
     6  H   -0.000531  -0.000030  -0.000276  -0.045809   0.400286   0.594760
     7  H   -0.003553  -0.000016   0.002570  -0.043063   0.397384  -0.035011
     8  H    0.003676  -0.000103   0.000081  -0.041411   0.406177  -0.028084
     9  C   -0.044041  -0.002231   0.001918   0.698849  -0.045933  -0.001034
    10  H    0.003079   0.000060  -0.000114  -0.036530  -0.006483   0.000123
    11  C   -0.007063  -0.002136   0.000138  -0.050686   0.003424  -0.000100
    12  H    0.000232  -0.000034  -0.000010   0.000593  -0.000100   0.000015
    13  H    0.000227   0.000172   0.000028  -0.001412  -0.000116  -0.000005
    14  H   -0.001828  -0.001334   0.000004  -0.000418   0.000092   0.000000
    15  C    0.000597   0.000160  -0.000016  -0.000017  -0.000000  -0.000000
    16  H   -0.000041   0.000014   0.000000   0.000001  -0.000000   0.000000
    17  H   -0.000054  -0.000052  -0.000012  -0.000027  -0.000000   0.000000
    18  H    0.000077  -0.000076  -0.000001  -0.000002   0.000000   0.000000
    19  C   -0.003607   0.001046   0.000615   0.000006  -0.000002   0.000000
    20  C   -0.000101  -0.000042  -0.000000   0.000002  -0.000000  -0.000000
    21  H    0.000022  -0.000005  -0.000001  -0.000000   0.000000   0.000000
    22  H   -0.000003  -0.000002   0.000002   0.000000  -0.000000  -0.000000
    23  H   -0.000004   0.000001   0.000000   0.000000  -0.000000   0.000000
    24  C   -0.063073  -0.000809  -0.000608   0.006131  -0.000158  -0.000086
    25  H    0.000005   0.000213   0.001003  -0.000155   0.000010   0.000012
    26  C    0.326225  -0.039862  -0.044591  -0.057360  -0.000188   0.000810
    27  H   -0.045144   0.004292  -0.002604  -0.001853  -0.000391  -0.000187
    28  H   -0.040287  -0.002145   0.004202  -0.001436   0.000317  -0.000009
               7          8          9         10         11         12
     1  C   -0.003553   0.003676  -0.044041   0.003079  -0.007063   0.000232
     2  H   -0.000016  -0.000103  -0.002231   0.000060  -0.002136  -0.000034
     3  H    0.002570   0.000081   0.001918  -0.000114   0.000138  -0.000010
     4  C   -0.043063  -0.041411   0.698849  -0.036530  -0.050686   0.000593
     5  C    0.397384   0.406177  -0.045933  -0.006483   0.003424  -0.000100
     6  H   -0.035011  -0.028084  -0.001034   0.000123  -0.000100   0.000015
     7  H    0.593610  -0.027612  -0.000426   0.000248  -0.000114  -0.000004
     8  H   -0.027612   0.571056  -0.002737   0.002222   0.000137  -0.000009
     9  C   -0.000426  -0.002737   4.939953   0.404871   0.337724  -0.042839
    10  H    0.000248   0.002222   0.404871   0.559355  -0.043635  -0.002646
    11  C   -0.000114   0.000137   0.337724  -0.043635   4.906204   0.403009
    12  H   -0.000004  -0.000009  -0.042839  -0.002646   0.403009   0.586792
    13  H    0.000021  -0.000004  -0.044357  -0.000222   0.400029  -0.033279
    14  H   -0.000001   0.000004  -0.041938   0.003315   0.408022  -0.030019
    15  C   -0.000000  -0.000000   0.000010  -0.000000  -0.000097  -0.000004
    16  H    0.000000   0.000000   0.000000   0.000000   0.000002  -0.000000
    17  H   -0.000000   0.000000  -0.000032   0.000000   0.000040   0.000042
    18  H   -0.000000  -0.000000   0.000000  -0.000000  -0.000003   0.000000
    19  C    0.000000   0.000000   0.000001   0.000000   0.000007   0.000000
    20  C   -0.000000   0.000000  -0.000000   0.000000  -0.000000  -0.000000
    21  H   -0.000000  -0.000000  -0.000000  -0.000000   0.000000   0.000000
    22  H   -0.000000   0.000000  -0.000000   0.000000   0.000000  -0.000000
    23  H    0.000000   0.000000   0.000000   0.000000  -0.000000  -0.000000
    24  C    0.000001   0.000003   0.000070   0.000002  -0.000032  -0.000004
    25  H   -0.000002  -0.000000  -0.000002  -0.000000   0.000000   0.000000
    26  C    0.000027  -0.000097  -0.004366  -0.000116   0.000690   0.000091
    27  H    0.000093  -0.000025   0.000514   0.000004  -0.000030   0.000000
    28  H    0.000012  -0.000010   0.001215  -0.000044   0.000070  -0.000079
              13         14         15         16         17         18
     1  C    0.000227  -0.001828   0.000597  -0.000041  -0.000054   0.000077
     2  H    0.000172  -0.001334   0.000160   0.000014  -0.000052  -0.000076
     3  H    0.000028   0.000004  -0.000016   0.000000  -0.000012  -0.000001
     4  C   -0.001412  -0.000418  -0.000017   0.000001  -0.000027  -0.000002
     5  C   -0.000116   0.000092  -0.000000  -0.000000  -0.000000   0.000000
     6  H   -0.000005   0.000000  -0.000000   0.000000   0.000000   0.000000
     7  H    0.000021  -0.000001  -0.000000   0.000000  -0.000000  -0.000000
     8  H   -0.000004   0.000004  -0.000000   0.000000   0.000000  -0.000000
     9  C   -0.044357  -0.041938   0.000010   0.000000  -0.000032   0.000000
    10  H   -0.000222   0.003315  -0.000000   0.000000   0.000000  -0.000000
    11  C    0.400029   0.408022  -0.000097   0.000002   0.000040  -0.000003
    12  H   -0.033279  -0.030019  -0.000004  -0.000000   0.000042   0.000000
    13  H    0.584249  -0.026851   0.000002   0.000000  -0.000008  -0.000000
    14  H   -0.026851   0.573887   0.000010  -0.000006   0.000570   0.000034
    15  C    0.000002   0.000010   4.909193   0.398273   0.406155   0.402445
    16  H    0.000000  -0.000006   0.398273   0.582531  -0.026281  -0.033094
    17  H   -0.000008   0.000570   0.406155  -0.026281   0.568175  -0.030010
    18  H   -0.000000   0.000034   0.402445  -0.033094  -0.030010   0.586183
    19  C   -0.000000  -0.000013   0.348404  -0.043825  -0.037056  -0.043929
    20  C    0.000000   0.000000  -0.065371  -0.001684   0.003678  -0.003428
    21  H   -0.000000  -0.000000  -0.002141  -0.000371  -0.000072   0.002847
    22  H   -0.000000  -0.000000   0.003695  -0.000079  -0.000108   0.000010
    23  H    0.000000  -0.000000  -0.001106   0.002553  -0.000023  -0.000507
    24  C    0.000002   0.000003  -0.043322  -0.000842  -0.002871   0.000448
    25  H    0.000000  -0.000001   0.003365  -0.000126   0.000059  -0.000110
    26  C   -0.000050  -0.000212  -0.007533   0.000188  -0.001944   0.000286
    27  H   -0.000000  -0.000008   0.000169   0.000032   0.000031  -0.000012
    28  H    0.000023  -0.000251  -0.002065   0.000056  -0.001170  -0.000043
              19         20         21         22         23         24
     1  C   -0.003607  -0.000101   0.000022  -0.000003  -0.000004  -0.063073
     2  H    0.001046  -0.000042  -0.000005  -0.000002   0.000001  -0.000809
     3  H    0.000615  -0.000000  -0.000001   0.000002   0.000000  -0.000608
     4  C    0.000006   0.000002  -0.000000   0.000000   0.000000   0.006131
     5  C   -0.000002  -0.000000   0.000000  -0.000000  -0.000000  -0.000158
     6  H    0.000000  -0.000000   0.000000  -0.000000   0.000000  -0.000086
     7  H    0.000000  -0.000000  -0.000000  -0.000000   0.000000   0.000001
     8  H    0.000000   0.000000  -0.000000   0.000000   0.000000   0.000003
     9  C    0.000001  -0.000000  -0.000000  -0.000000   0.000000   0.000070
    10  H    0.000000   0.000000  -0.000000   0.000000   0.000000   0.000002
    11  C    0.000007  -0.000000   0.000000   0.000000  -0.000000  -0.000032
    12  H    0.000000  -0.000000   0.000000  -0.000000  -0.000000  -0.000004
    13  H   -0.000000   0.000000  -0.000000  -0.000000   0.000000   0.000002
    14  H   -0.000013   0.000000  -0.000000  -0.000000  -0.000000   0.000003
    15  C    0.348404  -0.065371  -0.002141   0.003695  -0.001106  -0.043322
    16  H   -0.043825  -0.001684  -0.000371  -0.000079   0.002553  -0.000842
    17  H   -0.037056   0.003678  -0.000072  -0.000108  -0.000023  -0.002871
    18  H   -0.043929  -0.003428   0.002847   0.000010  -0.000507   0.000448
    19  C    4.918235   0.352283  -0.044313  -0.040395  -0.045764   0.698169
    20  C    0.352283   4.903225   0.396987   0.405439   0.399267  -0.044868
    21  H   -0.044313   0.396987   0.594328  -0.027370  -0.034900  -0.000547
    22  H   -0.040395   0.405439  -0.027370   0.568006  -0.027565  -0.002387
    23  H   -0.045764   0.399267  -0.034900  -0.027565   0.593069  -0.001136
    24  C    0.698169  -0.044868  -0.000547  -0.002387  -0.001136   4.961535
    25  H   -0.036141  -0.006748   0.000235   0.002177   0.000150   0.402014
    26  C   -0.048267   0.003153  -0.000086   0.000146  -0.000124   0.339930
    27  H    0.000914  -0.000102  -0.000002  -0.000011   0.000012  -0.043349
    28  H    0.000823   0.000070  -0.000004   0.000006   0.000004  -0.043801
              25         26         27         28
     1  C    0.000005   0.326225  -0.045144  -0.040287
     2  H    0.000213  -0.039862   0.004292  -0.002145
     3  H    0.001003  -0.044591  -0.002604   0.004202
     4  C   -0.000155  -0.057360  -0.001853  -0.001436
     5  C    0.000010  -0.000188  -0.000391   0.000317
     6  H    0.000012   0.000810  -0.000187  -0.000009
     7  H   -0.000002   0.000027   0.000093   0.000012
     8  H   -0.000000  -0.000097  -0.000025  -0.000010
     9  C   -0.000002  -0.004366   0.000514   0.001215
    10  H   -0.000000  -0.000116   0.000004  -0.000044
    11  C    0.000000   0.000690  -0.000030   0.000070
    12  H    0.000000   0.000091   0.000000  -0.000079
    13  H    0.000000  -0.000050  -0.000000   0.000023
    14  H   -0.000001  -0.000212  -0.000008  -0.000251
    15  C    0.003365  -0.007533   0.000169  -0.002065
    16  H   -0.000126   0.000188   0.000032   0.000056
    17  H    0.000059  -0.001944   0.000031  -0.001170
    18  H   -0.000110   0.000286  -0.000012  -0.000043
    19  C   -0.036141  -0.048267   0.000914   0.000823
    20  C   -0.006748   0.003153  -0.000102   0.000070
    21  H    0.000235  -0.000086  -0.000002  -0.000004
    22  H    0.002177   0.000146  -0.000011   0.000006
    23  H    0.000150  -0.000124   0.000012   0.000004
    24  C    0.402014   0.339930  -0.043349  -0.043801
    25  H    0.558516  -0.041268  -0.003486   0.003230
    26  C   -0.041268   4.982288   0.413777   0.414880
    27  H   -0.003486   0.413777   0.588502  -0.029600
    28  H    0.003230   0.414880  -0.029600   0.571199
 Mulliken charges:
               1
     1  C   -0.234032
     2  H    0.126376
     3  H    0.115660
     4  C    0.015504
     5  C   -0.339904
     6  H    0.115155
     7  H    0.115834
     8  H    0.116735
     9  C   -0.155187
    10  H    0.116509
    11  C   -0.355602
    12  H    0.118251
    13  H    0.121551
    14  H    0.116938
    15  C   -0.350804
    16  H    0.122700
    17  H    0.120967
    18  H    0.118885
    19  C    0.022809
    20  C   -0.341758
    21  H    0.115392
    22  H    0.118438
    23  H    0.116074
    24  C   -0.160417
    25  H    0.117050
    26  C   -0.236427
    27  H    0.118465
    28  H    0.124838
 Sum of Mulliken charges =  -0.00000
 Mulliken charges with hydrogens summed into heavy atoms:
               1
     1  C    0.008004
     4  C    0.015504
     5  C    0.007820
     9  C   -0.038679
    11  C    0.001138
    15  C    0.011748
    19  C    0.022809
    20  C    0.008146
    24  C   -0.043366
    26  C    0.006876
 Electronic spatial extent (au):  <R**2>=           2423.6309
 Charge=              0.0000 electrons
 Dipole moment (field-independent basis, Debye):
    X=             -0.2949    Y=              0.1261    Z=             -0.0061  Tot=              0.3208
 Quadrupole moment (field-independent basis, Debye-Ang):
   XX=            -64.5122   YY=            -63.6026   ZZ=            -67.0538
   XY=             -0.6105   XZ=             -0.8624   YZ=             -0.4859
 Traceless Quadrupole moment (field-independent basis, Debye-Ang):
   XX=              0.5440   YY=              1.4536   ZZ=             -1.9976
   XY=             -0.6105   XZ=             -0.8624   YZ=             -0.4859
 Octapole moment (field-independent basis, Debye-Ang**2):
  XXX=             -1.3698  YYY=             -2.7207  ZZZ=              0.1840  XYY=              0.5710
  XXY=              4.5326  XXZ=             -2.6522  XZZ=             -1.5757  YZZ=              1.2276
  YYZ=              1.3705  XYZ=              0.7519
 Hexadecapole moment (field-independent basis, Debye-Ang**3):
 XXXX=          -2492.2678 YYYY=           -696.1061 ZZZZ=           -174.8185 XXXY=              2.3554
 XXXZ=            -11.9241 YYYX=              9.3544 YYYZ=             -3.0544 ZZZX=              0.8371
 ZZZY=             -0.0669 XXYY=           -530.4551 XXZZ=           -456.3089 YYZZ=           -139.1703
 XXYZ=             -4.2430 YYXZ=             -3.1976 ZZXY=             -4.7006
 N-N= 5.164374461250D+02 E-N=-1.937509088583D+03  KE= 3.886263332609D+02
 No NMR shielding tensors so no spin-rotation constants.
 Leave Link  601 at Fri Sep 17 16:03:04 2021, MaxMem=   524288000 cpu:               0.1 elap:               0.2
 (Enter /opt/gaussian/g16_legacy/l701.exe)
 ... and contract with generalized density number  2.
 Compute integral first derivatives.
 Leave Link  701 at Fri Sep 17 16:03:05 2021, MaxMem=   524288000 cpu:               0.2 elap:               0.1
 (Enter /opt/gaussian/g16_legacy/l702.exe)
 L702 exits ... SP integral derivatives will be done elsewhere.
 Leave Link  702 at Fri Sep 17 16:03:05 2021, MaxMem=   524288000 cpu:               0.0 elap:               0.0
 (Enter /opt/gaussian/g16_legacy/l703.exe)
 Integral derivatives from FoFJK, PRISM(SPDF).
 Compute integral first derivatives, UseDBF=F ICtDFT=           0.
 Calling FoFJK, ICntrl=  10002127 FMM=F ISym2X=0 I1Cent= 0 IOpClX= 0 NMat=1 NMatS=1 NMatT=0.
 FoFJK:  IHMeth= 1 ICntrl=10002127 DoSepK=F KAlg= 0 I1Cent=           0 FoldK=F
 IRaf=         0 NMat=       1 IRICut=       1 DoRegI=T DoRafI=F ISym2E= 0 IDoP0=0 IntGTp=1.
 FoFCou: FMM=F IPFlag=           0 FMFlag=      100000 FMFlg1=         800
         NFxFlg=           0 DoJE=F BraDBF=F KetDBF=F FulRan=T
         wScrn=  0.000000 ICntrl=  10002127 IOpCl=  0 I1Cent=           0 NGrid=           0
         NMat0=    1 NMatS0=      1 NMatT0=    0 NMatD0=    1 NMtDS0=    0 NMtDT0=    0
 Symmetry not used in FoFCou.
 Leave Link  703 at Fri Sep 17 16:03:23 2021, MaxMem=   524288000 cpu:              18.8 elap:              18.8
 (Enter /opt/gaussian/g16_legacy/l716.exe)
 Dipole        =-9.11467464D-02 6.68681673D-02-4.82056193D-03
 ***** Axes restored to original set *****
 -------------------------------------------------------------------
 Center     Atomic                   Forces (Hartrees/Bohr)
 Number     Number              X              Y              Z
 -------------------------------------------------------------------
      1        6          -0.006919699    0.001607605   -0.006386174
      2        1           0.001037449    0.002982212    0.003481804
      3        1           0.000869077    0.003406234    0.001470370
      4        6          -0.005054388   -0.003743799   -0.001461006
      5        6          -0.002540131    0.001984693    0.000044995
      6        1          -0.001299406   -0.003061966   -0.000530419
      7        1           0.001646290    0.001833579    0.002283716
      8        1           0.003853631   -0.000759697   -0.001162013
      9        6           0.001930943    0.000586073    0.003172788
     10        1           0.001736571   -0.002157619    0.002256142
     11        6           0.002152165    0.000493225   -0.001533646
     12        1          -0.000406730   -0.002623251   -0.002188660
     13        1           0.002245760    0.002578074   -0.000380723
     14        1          -0.003205032   -0.000590373    0.000756668
     15        6          -0.003734244    0.002502133   -0.000628491
     16        1          -0.000137333   -0.001220118   -0.002891444
     17        1           0.001926690   -0.001702028    0.002278353
     18        1           0.001652080    0.001250914    0.003006534
     19        6          -0.001923847   -0.004866448    0.000915464
     20        6          -0.000814310   -0.002761092    0.001723954
     21        1           0.002229110    0.002007189    0.001886480
     22        1          -0.001248334    0.003546353   -0.002084519
     23        1          -0.000249593   -0.001720790   -0.002872407
     24        6          -0.000850863    0.003536252    0.003797612
     25        1           0.002246182    0.000721245   -0.002482389
     26        6           0.007627827    0.000092224    0.002269997
     27        1          -0.001669378   -0.000536835   -0.002897445
     28        1          -0.001100489   -0.003383987   -0.001845538
 -------------------------------------------------------------------
 Cartesian Forces:  Max     0.007627827 RMS     0.002572778
 Leave Link  716 at Fri Sep 17 16:03:23 2021, MaxMem=   524288000 cpu:               0.0 elap:               0.0
 (Enter /opt/gaussian/g16_legacy/l103.exe)

 GradGradGradGradGradGradGradGradGradGradGradGradGradGradGradGradGradGrad
 Berny optimization.
 FormGI is forming the generalized inverse of G from B-inverse, IUseBI=4.
 Internal  Forces:  Max     0.004887958 RMS     0.001915597
 Search for a local minimum.
 Step number   1 out of a maximum of  138
 All quantities printed in internal units (Hartrees-Bohrs-Radians)
 RMS Force = .19156D-02 SwitMx=.10000D-02 MixMth= 1
 Mixed Optimization -- RFO/linear search
 Second derivative matrix not updated -- first step.
 ITU=  0
     Eigenvalues ---    0.00343   0.00569   0.00671   0.00681   0.00692
     Eigenvalues ---    0.00714   0.00818   0.01219   0.01287   0.01568
     Eigenvalues ---    0.01641   0.02780   0.02784   0.04018   0.04138
     Eigenvalues ---    0.05349   0.05399   0.06978   0.07035   0.07091
     Eigenvalues ---    0.07093   0.07268   0.07301   0.07347   0.07505
     Eigenvalues ---    0.09276   0.09362   0.12766   0.12843   0.15999
     Eigenvalues ---    0.15999   0.16000   0.16000   0.16000   0.16000
     Eigenvalues ---    0.16000   0.16000   0.16000   0.16000   0.16000
     Eigenvalues ---    0.16000   0.16000   0.16000   0.21858   0.21866
     Eigenvalues ---    0.22000   0.22000   0.24994   0.24997   0.24998
     Eigenvalues ---    0.24999   0.29244   0.30868   0.31634   0.31711
     Eigenvalues ---    0.31797   0.31966   0.32790   0.33867   0.33974
     Eigenvalues ---    0.34058   0.34198   0.34223   0.34238   0.34245
     Eigenvalues ---    0.34248   0.34254   0.34256   0.34264   0.34267
     Eigenvalues ---    0.34300   0.34335   0.34553   0.34558   0.34796
     Eigenvalues ---    0.34848   0.55499   0.55576
 RFO step:  Lambda=-2.95908248D-03 EMin= 3.43228906D-03
 Linear search not attempted -- first point.
 Iteration  1 RMS(Cart)=  0.03969980 RMS(Int)=  0.00072346
 Iteration  2 RMS(Cart)=  0.00093576 RMS(Int)=  0.00016629
 Iteration  3 RMS(Cart)=  0.00000043 RMS(Int)=  0.00016629
 ITry= 1 IFail=0 DXMaxC= 1.84D-01 DCOld= 1.00D+10 DXMaxT= 3.00D-01 DXLimC= 3.00D+00 Rises=F
 Variable       Old X    -DE/DX   Delta X   Delta X   Delta X     New X
                                 (Linear)    (Quad)   (Total)
    R1        2.07233  -0.00334   0.00000  -0.00972  -0.00972   2.06261
    R2        2.07554  -0.00278   0.00000  -0.00813  -0.00813   2.06741
    R3        2.86266  -0.00354   0.00000  -0.01137  -0.01137   2.85129
    R4        2.89498   0.00175   0.00000   0.00592   0.00592   2.90090
    R5        2.84819  -0.00045   0.00000  -0.00140  -0.00140   2.84679
    R6        2.54691  -0.00395   0.00000  -0.00709  -0.00709   2.53982
    R7        2.06827  -0.00177   0.00000  -0.00512  -0.00512   2.06315
    R8        2.06900  -0.00212   0.00000  -0.00615  -0.00615   2.06285
    R9        2.06956  -0.00370   0.00000  -0.01072  -0.01072   2.05883
   R10        2.05923  -0.00222   0.00000  -0.00631  -0.00631   2.05292
   R11        2.82721   0.00307   0.00000   0.00929   0.00929   2.83651
   R12        2.06886  -0.00258   0.00000  -0.00745  -0.00745   2.06141
   R13        2.06769  -0.00158   0.00000  -0.00456  -0.00456   2.06313
   R14        2.06398  -0.00288   0.00000  -0.00827  -0.00827   2.05572
   R15        2.06882  -0.00186   0.00000  -0.00537  -0.00537   2.06346
   R16        2.06407  -0.00280   0.00000  -0.00805  -0.00805   2.05602
   R17        2.06997  -0.00262   0.00000  -0.00760  -0.00760   2.06237
   R18        2.84207  -0.00051   0.00000  -0.00158  -0.00158   2.84048
   R19        2.84676  -0.00075   0.00000  -0.00235  -0.00235   2.84442
   R20        2.54624  -0.00324   0.00000  -0.00580  -0.00580   2.54043
   R21        2.06918  -0.00201   0.00000  -0.00582  -0.00582   2.06337
   R22        2.06929  -0.00390   0.00000  -0.01130  -0.01130   2.05800
   R23        2.06913  -0.00199   0.00000  -0.00577  -0.00577   2.06336
   R24        2.06007  -0.00199   0.00000  -0.00566  -0.00566   2.05441
   R25        2.84517  -0.00154   0.00000  -0.00479  -0.00479   2.84038
   R26        2.07375  -0.00237   0.00000  -0.00691  -0.00691   2.06684
   R27        2.06904  -0.00274   0.00000  -0.00792  -0.00792   2.06112
    A1        1.82989   0.00207   0.00000   0.02248   0.02232   1.85221
    A2        1.93005   0.00043   0.00000   0.00934   0.00937   1.93943
    A3        1.91833  -0.00277   0.00000  -0.02015  -0.02019   1.89814
    A4        1.90267  -0.00069   0.00000  -0.00277  -0.00276   1.89991
    A5        1.92015  -0.00195   0.00000  -0.01733  -0.01736   1.90279
    A6        1.95839   0.00283   0.00000   0.00910   0.00914   1.96754
    A7        2.00826   0.00238   0.00000   0.00971   0.00914   2.01740
    A8        2.17073  -0.00489   0.00000  -0.01896  -0.01949   2.15124
    A9        2.10402   0.00252   0.00000   0.01035   0.00978   2.11379
   A10        1.92807   0.00227   0.00000   0.01214   0.01216   1.94023
   A11        1.92487   0.00165   0.00000   0.00895   0.00897   1.93384
   A12        1.95926  -0.00262   0.00000  -0.01308  -0.01305   1.94621
   A13        1.89499  -0.00307   0.00000  -0.02473  -0.02472   1.87026
   A14        1.87695   0.00056   0.00000   0.00568   0.00572   1.88267
   A15        1.87754   0.00110   0.00000   0.01021   0.01024   1.88778
   A16        2.06970  -0.00194   0.00000  -0.01338  -0.01340   2.05630
   A17        2.22511  -0.00187   0.00000  -0.00837  -0.00839   2.21672
   A18        1.98824   0.00382   0.00000   0.02192   0.02190   2.01015
   A19        1.91004   0.00237   0.00000   0.01558   0.01552   1.92556
   A20        1.91721   0.00395   0.00000   0.02331   0.02327   1.94048
   A21        1.98123  -0.00299   0.00000  -0.01842  -0.01833   1.96290
   A22        1.88715  -0.00309   0.00000  -0.01884  -0.01902   1.86813
   A23        1.87268   0.00053   0.00000   0.00496   0.00503   1.87770
   A24        1.89291  -0.00096   0.00000  -0.00765  -0.00756   1.88536
   A25        1.88438   0.00024   0.00000   0.00332   0.00334   1.88772
   A26        1.89074  -0.00241   0.00000  -0.02166  -0.02164   1.86909
   A27        1.92157   0.00230   0.00000   0.01171   0.01173   1.93330
   A28        1.86377   0.00200   0.00000   0.01694   0.01695   1.88072
   A29        1.97972  -0.00222   0.00000  -0.01022  -0.01020   1.96952
   A30        1.92077   0.00001   0.00000  -0.00087  -0.00085   1.91992
   A31        1.99474   0.00145   0.00000   0.00577   0.00575   2.00049
   A32        2.18261  -0.00329   0.00000  -0.01295  -0.01298   2.16964
   A33        2.10579   0.00184   0.00000   0.00729   0.00727   2.11306
   A34        1.92484   0.00221   0.00000   0.01243   0.01246   1.93730
   A35        1.96062  -0.00277   0.00000  -0.01385  -0.01381   1.94680
   A36        1.92351   0.00174   0.00000   0.00872   0.00874   1.93225
   A37        1.87918   0.00092   0.00000   0.00936   0.00940   1.88859
   A38        1.89484  -0.00313   0.00000  -0.02542  -0.02541   1.86943
   A39        1.87884   0.00092   0.00000   0.00791   0.00795   1.88678
   A40        2.06719  -0.00168   0.00000  -0.01184  -0.01225   2.05494
   A41        2.22710  -0.00224   0.00000  -0.00989  -0.01031   2.21679
   A42        1.98877   0.00394   0.00000   0.02253   0.02211   2.01088
   A43        1.94444   0.00332   0.00000   0.01370   0.01373   1.95816
   A44        1.92082  -0.00238   0.00000  -0.01468  -0.01487   1.90595
   A45        1.92611  -0.00264   0.00000  -0.02498  -0.02505   1.90106
   A46        1.88059   0.00060   0.00000   0.01706   0.01711   1.89769
   A47        1.94665  -0.00053   0.00000  -0.00249  -0.00244   1.94421
   A48        1.84191   0.00155   0.00000   0.01190   0.01164   1.85355
    D1        2.64267   0.00174   0.00000   0.05213   0.05192   2.69459
    D2       -0.47846   0.00076   0.00000  -0.01014  -0.00991  -0.48837
    D3        0.63965  -0.00059   0.00000   0.02151   0.02127   0.66091
    D4       -2.48148  -0.00157   0.00000  -0.04076  -0.04056  -2.52205
[...]
                 (A) (A) (A) (A) (A) (A) (A) (A) (A) (A) (A) (A)
                 (A) (A) (A) (A) (A) (A) (A) (A) (A) (A) (A) (A)
                 (A) (A) (A) (A) (A) (A) (A) (A) (A) (A) (A) (A)
                 (A) (A) (A) (A) (A) (A) (A) (A) (A) (A) (A) (A)
                 (A) (A) (A) (A) (A) (A) (A) (A) (A) (A) (A) (A)
                 (A) (A) (A) (A) (A) (A) (A) (A) (A) (A) (A) (A)
                 (A) (A) (A) (A) (A) (A) (A) (A) (A) (A) (A) (A)
                 (A) (A) (A) (A) (A) (A) (A) (A) (A) (A) (A) (A)
                 (A) (A) (A) (A) (A) (A) (A) (A) (A) (A) (A) (A)
                 (A) (A) (A) (A) (A) (A) (A) (A) (A) (A) (A) (A)
                 (A) (A) (A) (A) (A) (A) (A) (A) (A) (A) (A) (A)
                 (A) (A) (A) (A) (A) (A) (A) (A) (A) (A) (A) (A)
                 (A) (A) (A) (A) (A) (A) (A) (A) (A) (A) (A) (A)
                 (A) (A) (A) (A) (A) (A) (A) (A) (A) (A) (A) (A)
                 (A) (A) (A) (A) (A) (A) (A) (A) (A)
 The electronic state is 1-A.
 Alpha  occ. eigenvalues --  -11.23020 -11.22460 -11.21868 -11.21730 -11.21712
 Alpha  occ. eigenvalues --  -11.21539 -11.21506 -11.21436 -11.21417 -11.21348
 Alpha  occ. eigenvalues --   -1.10821  -1.08492  -1.01823  -0.98143  -0.93838
 Alpha  occ. eigenvalues --   -0.91939  -0.86963  -0.82855  -0.70494  -0.69519
 Alpha  occ. eigenvalues --   -0.64988  -0.61512  -0.60591  -0.58878  -0.58366
 Alpha  occ. eigenvalues --   -0.56774  -0.55298  -0.54966  -0.53295  -0.52261
 Alpha  occ. eigenvalues --   -0.51859  -0.51173  -0.50832  -0.49581  -0.48519
 Alpha  occ. eigenvalues --   -0.46073  -0.44624  -0.33371  -0.31514
 Alpha virt. eigenvalues --    0.18142   0.19779   0.22152   0.24486   0.25192
 Alpha virt. eigenvalues --    0.27439   0.28535   0.28922   0.30318   0.30811
 Alpha virt. eigenvalues --    0.31477   0.32261   0.33202   0.33794   0.34383
 Alpha virt. eigenvalues --    0.35458   0.36114   0.36962   0.39185   0.40602
 Alpha virt. eigenvalues --    0.41328   0.42631   0.43685   0.44253   0.45395
 Alpha virt. eigenvalues --    0.51702   0.54378   0.61070   0.62576   0.70520
 Alpha virt. eigenvalues --    0.71073   0.72196   0.73768   0.76075   0.76177
 Alpha virt. eigenvalues --    0.76620   0.79010   0.79474   0.81070   0.82306
 Alpha virt. eigenvalues --    0.83713   0.85579   0.89117   0.91091   0.91343
 Alpha virt. eigenvalues --    0.92820   0.94745   0.97065   0.98284   0.98818
 Alpha virt. eigenvalues --    0.99710   1.00468   1.01911   1.03844   1.06577
 Alpha virt. eigenvalues --    1.08019   1.08221   1.09393   1.11664   1.12687
 Alpha virt. eigenvalues --    1.13026   1.13870   1.14856   1.15402   1.16045
 Alpha virt. eigenvalues --    1.16257   1.16619   1.18722   1.19116   1.20671
 Alpha virt. eigenvalues --    1.20953   1.23032   1.23885   1.25765   1.28153
 Alpha virt. eigenvalues --    1.34331   1.41723   1.42153   1.44890   1.46395
 Alpha virt. eigenvalues --    1.48456   1.54136   1.55360   1.57256   1.58165
 Alpha virt. eigenvalues --    1.61459   1.63397   1.66485   1.69046   1.69645
 Alpha virt. eigenvalues --    1.73917   1.82243   1.91111   1.93363   1.96231
 Alpha virt. eigenvalues --    1.98688   2.01467   2.02277   2.03942   2.08565
 Alpha virt. eigenvalues --    2.09706   2.10748   2.11744   2.13037   2.14903
 Alpha virt. eigenvalues --    2.15780   2.16940   2.19854   2.23666   2.28347
 Alpha virt. eigenvalues --    2.29590   2.30325   2.33235   2.35347   2.35688
 Alpha virt. eigenvalues --    2.35978   2.36098   2.38923   2.40264   2.41259
 Alpha virt. eigenvalues --    2.42195   2.43169   2.44154   2.45371   2.46084
 Alpha virt. eigenvalues --    2.47201   2.49167   2.49622   2.51174   2.54099
 Alpha virt. eigenvalues --    2.57315   2.58365   2.61888   2.63241   2.64107
 Alpha virt. eigenvalues --    2.67127   2.68175   2.71776   2.73352   2.73474
 Alpha virt. eigenvalues --    2.75815   2.77410   2.80796   2.82634   2.85354
 Alpha virt. eigenvalues --    2.87137   2.89441   2.92178   2.93739   2.94867
 Alpha virt. eigenvalues --    2.97869   2.99094   3.00960   3.02677   3.05807
 Alpha virt. eigenvalues --    3.06402   3.07703   3.09315   3.13762   3.17093
 Alpha virt. eigenvalues --    3.17589   3.19238   3.20046   3.21242   3.22334
 Alpha virt. eigenvalues --    3.24167   3.25050   3.26607   3.27420   3.37866
 Alpha virt. eigenvalues --    3.40355   3.46023   3.46902   3.56200   3.58183
 Alpha virt. eigenvalues --    3.59499   3.62406   3.67928   3.75494   3.78622
 Alpha virt. eigenvalues --    3.80005   3.81570   3.82569   3.83286   3.83898
 Alpha virt. eigenvalues --    3.84750   3.86481   3.87645   3.89820   3.91558
 Alpha virt. eigenvalues --    3.97645   4.59389   4.63170   4.74472   4.82572
 Alpha virt. eigenvalues --    4.88928   4.92582   4.93409   5.07840   5.10766
 Alpha virt. eigenvalues --    5.17766
          Condensed to atoms (all electrons):
               1          2          3          4          5          6
     1  C    5.004768   0.411714   0.414473   0.337355  -0.056085   0.000011
     2  H    0.411714   0.572983  -0.028296  -0.038988   0.003071  -0.000005
     3  H    0.414473  -0.028296   0.587507  -0.046308  -0.004587  -0.000489
     4  C    0.337355  -0.038988  -0.046308   4.952603   0.351934  -0.045679
     5  C   -0.056085   0.003071  -0.004587   0.351934   4.891804   0.400946
     6  H    0.000011  -0.000005  -0.000489  -0.045679   0.400946   0.596034
     7  H   -0.003698  -0.000034   0.002378  -0.041506   0.397495  -0.037541
     8  H    0.003801  -0.000108   0.000106  -0.042765   0.407087  -0.027466
     9  C   -0.047991  -0.001860   0.002531   0.697840  -0.046054  -0.001011
    10  H    0.003272   0.000031  -0.000118  -0.037842  -0.006525   0.000135
    11  C   -0.007749  -0.002811   0.000160  -0.050271   0.003364  -0.000101
    12  H    0.000310  -0.000067  -0.000013  -0.000247  -0.000095   0.000017
    13  H    0.000152   0.000184   0.000017  -0.000627  -0.000106  -0.000004
    14  H   -0.001745  -0.001657   0.000030  -0.000691   0.000109  -0.000003
    15  C    0.000587   0.000200  -0.000015  -0.000018  -0.000000  -0.000000
    16  H   -0.000040   0.000022   0.000000   0.000001  -0.000000  -0.000000
    17  H   -0.000302  -0.000131  -0.000016  -0.000011  -0.000000   0.000000
    18  H    0.000130  -0.000135  -0.000002  -0.000005   0.000000   0.000000
    19  C   -0.004325   0.001388   0.000787   0.000041  -0.000003   0.000000
    20  C   -0.000099  -0.000043  -0.000004   0.000001  -0.000000  -0.000000
    21  H    0.000024  -0.000007  -0.000002  -0.000000   0.000000   0.000000
    22  H   -0.000003  -0.000002   0.000003   0.000000  -0.000000  -0.000000
    23  H   -0.000005   0.000002   0.000000   0.000000  -0.000000   0.000000
    24  C   -0.061827  -0.000504  -0.000900   0.006443  -0.000149  -0.000111
    25  H    0.000175   0.000111   0.001011  -0.000152   0.000010   0.000015
    26  C    0.332330  -0.041801  -0.046074  -0.055544  -0.000661   0.000609
    27  H   -0.046841   0.004515  -0.001931  -0.002075  -0.000289   0.000197
    28  H   -0.042369  -0.003118   0.004477  -0.001813   0.000243  -0.000015
               7          8          9         10         11         12
     1  C   -0.003698   0.003801  -0.047991   0.003272  -0.007749   0.000310
     2  H   -0.000034  -0.000108  -0.001860   0.000031  -0.002811  -0.000067
     3  H    0.002378   0.000106   0.002531  -0.000118   0.000160  -0.000013
     4  C   -0.041506  -0.042765   0.697840  -0.037842  -0.050271  -0.000247
     5  C    0.397495   0.407087  -0.046054  -0.006525   0.003364  -0.000095
     6  H   -0.037541  -0.027466  -0.001011   0.000135  -0.000101   0.000017
     7  H    0.591921  -0.026764  -0.000373   0.000216  -0.000105  -0.000004
     8  H   -0.026764   0.568858  -0.002890   0.002385   0.000132  -0.000006
     9  C   -0.000373  -0.002890   4.938971   0.404494   0.340494  -0.041805
    10  H    0.000216   0.002385   0.404494   0.558671  -0.041279  -0.001264
    11  C   -0.000105   0.000132   0.340494  -0.041279   4.900974   0.402169
    12  H   -0.000004  -0.000006  -0.041805  -0.001264   0.402169   0.586720
    13  H    0.000017  -0.000006  -0.041523  -0.001122   0.401144  -0.035462
    14  H    0.000002   0.000005  -0.043903   0.003299   0.409079  -0.029956
    15  C    0.000000  -0.000000   0.000015  -0.000000  -0.000147  -0.000015
    16  H    0.000000   0.000000   0.000000   0.000000   0.000003  -0.000000
    17  H   -0.000000   0.000000  -0.000045   0.000000   0.000074   0.000114
    18  H   -0.000000  -0.000000   0.000000  -0.000000  -0.000009   0.000000
    19  C    0.000000   0.000000  -0.000001   0.000000   0.000013   0.000001
    20  C   -0.000000   0.000000  -0.000000   0.000000  -0.000000  -0.000000
    21  H   -0.000000  -0.000000   0.000000  -0.000000  -0.000000   0.000000
    22  H   -0.000000   0.000000  -0.000000   0.000000   0.000000  -0.000000
    23  H    0.000000   0.000000   0.000000   0.000000   0.000000  -0.000000
    24  C    0.000004   0.000004   0.000114   0.000002  -0.000031  -0.000009
    25  H   -0.000001  -0.000000  -0.000002  -0.000000   0.000000   0.000000
    26  C    0.000086  -0.000109  -0.004911  -0.000113   0.000577   0.000163
    27  H    0.000058  -0.000050   0.000760   0.000001  -0.000033  -0.000000
    28  H    0.000006  -0.000005   0.001406  -0.000046  -0.000082  -0.000140
              13         14         15         16         17         18
     1  C    0.000152  -0.001745   0.000587  -0.000040  -0.000302   0.000130
     2  H    0.000184  -0.001657   0.000200   0.000022  -0.000131  -0.000135
     3  H    0.000017   0.000030  -0.000015   0.000000  -0.000016  -0.000002
     4  C   -0.000627  -0.000691  -0.000018   0.000001  -0.000011  -0.000005
     5  C   -0.000106   0.000109  -0.000000  -0.000000  -0.000000   0.000000
     6  H   -0.000004  -0.000003  -0.000000  -0.000000   0.000000   0.000000
     7  H    0.000017   0.000002   0.000000   0.000000  -0.000000  -0.000000
     8  H   -0.000006   0.000005  -0.000000   0.000000   0.000000  -0.000000
     9  C   -0.041523  -0.043903   0.000015   0.000000  -0.000045   0.000000
    10  H   -0.001122   0.003299  -0.000000   0.000000   0.000000  -0.000000
    11  C    0.401144   0.409079  -0.000147   0.000003   0.000074  -0.000009
    12  H   -0.035462  -0.029956  -0.000015  -0.000000   0.000114   0.000000
    13  H    0.583648  -0.027132   0.000004   0.000000  -0.000013  -0.000000
    14  H   -0.027132   0.577164  -0.000000  -0.000008   0.000412   0.000079
    15  C    0.000004  -0.000000   4.907254   0.399852   0.407154   0.401208
    16  H    0.000000  -0.000008   0.399852   0.584669  -0.026060  -0.035759
    17  H   -0.000013   0.000412   0.407154  -0.026060   0.568221  -0.028659
    18  H   -0.000000   0.000079   0.401208  -0.035759  -0.028659   0.587442
    19  C   -0.000000  -0.000026   0.350333  -0.043537  -0.037848  -0.043385
    20  C    0.000000   0.000000  -0.064931  -0.002223   0.003725  -0.002632
    21  H   -0.000000  -0.000000  -0.001975  -0.000456  -0.000068   0.002756
    22  H   -0.000000  -0.000000   0.003785  -0.000053  -0.000113  -0.000032
    23  H    0.000000  -0.000000  -0.001201   0.002766  -0.000031  -0.000476
    24  C    0.000002   0.000026  -0.044248  -0.000365  -0.003253  -0.000031
    25  H    0.000000  -0.000002   0.003528  -0.000121   0.000061  -0.000121
    26  C   -0.000037  -0.000737  -0.008144   0.000117  -0.002069   0.000367
    27  H   -0.000000  -0.000010   0.000195   0.000021   0.000058  -0.000014
    28  H    0.000037  -0.000475  -0.002693   0.000113  -0.001675  -0.000076
              19         20         21         22         23         24
     1  C   -0.004325  -0.000099   0.000024  -0.000003  -0.000005  -0.061827
     2  H    0.001388  -0.000043  -0.000007  -0.000002   0.000002  -0.000504
     3  H    0.000787  -0.000004  -0.000002   0.000003   0.000000  -0.000900
     4  C    0.000041   0.000001  -0.000000   0.000000   0.000000   0.006443
     5  C   -0.000003  -0.000000   0.000000  -0.000000  -0.000000  -0.000149
     6  H    0.000000  -0.000000   0.000000  -0.000000   0.000000  -0.000111
     7  H    0.000000  -0.000000  -0.000000  -0.000000   0.000000   0.000004
     8  H    0.000000   0.000000  -0.000000   0.000000   0.000000   0.000004
     9  C   -0.000001  -0.000000   0.000000  -0.000000   0.000000   0.000114
    10  H    0.000000   0.000000  -0.000000   0.000000   0.000000   0.000002
    11  C    0.000013  -0.000000  -0.000000   0.000000   0.000000  -0.000031
    12  H    0.000001  -0.000000   0.000000  -0.000000  -0.000000  -0.000009
    13  H   -0.000000   0.000000  -0.000000  -0.000000   0.000000   0.000002
    14  H   -0.000026   0.000000  -0.000000  -0.000000  -0.000000   0.000026
    15  C    0.350333  -0.064931  -0.001975   0.003785  -0.001201  -0.044248
    16  H   -0.043537  -0.002223  -0.000456  -0.000053   0.002766  -0.000365
    17  H   -0.037848   0.003725  -0.000068  -0.000113  -0.000031  -0.003253
    18  H   -0.043385  -0.002632   0.002756  -0.000032  -0.000476  -0.000031
    19  C    4.914192   0.353753  -0.043899  -0.041639  -0.044274   0.697734
    20  C    0.353753   4.900112   0.398238   0.406218   0.398811  -0.044415
    21  H   -0.043899   0.398238   0.594542  -0.026703  -0.037806  -0.000422
    22  H   -0.041639   0.406218  -0.026703   0.566018  -0.026549  -0.002632
    23  H   -0.044274   0.398811  -0.037806  -0.026549   0.593607  -0.001270
    24  C    0.697734  -0.044415  -0.000422  -0.002632  -0.001270   4.962747
    25  H   -0.038449  -0.006963   0.000182   0.002335   0.000187   0.403391
    26  C   -0.050100   0.003126  -0.000068   0.000148  -0.000131   0.338699
    27  H    0.001583  -0.000094  -0.000002  -0.000010   0.000009  -0.041394
    28  H    0.000438   0.000051  -0.000005   0.000007   0.000007  -0.044060
              25         26         27         28
     1  C    0.000175   0.332330  -0.046841  -0.042369
     2  H    0.000111  -0.041801   0.004515  -0.003118
     3  H    0.001011  -0.046074  -0.001931   0.004477
     4  C   -0.000152  -0.055544  -0.002075  -0.001813
     5  C    0.000010  -0.000661  -0.000289   0.000243
     6  H    0.000015   0.000609   0.000197  -0.000015
     7  H   -0.000001   0.000086   0.000058   0.000006
     8  H   -0.000000  -0.000109  -0.000050  -0.000005
     9  C   -0.000002  -0.004911   0.000760   0.001406
    10  H   -0.000000  -0.000113   0.000001  -0.000046
    11  C    0.000000   0.000577  -0.000033  -0.000082
    12  H    0.000000   0.000163  -0.000000  -0.000140
    13  H    0.000000  -0.000037  -0.000000   0.000037
    14  H   -0.000002  -0.000737  -0.000010  -0.000475
    15  C    0.003528  -0.008144   0.000195  -0.002693
    16  H   -0.000121   0.000117   0.000021   0.000113
    17  H    0.000061  -0.002069   0.000058  -0.001675
    18  H   -0.000121   0.000367  -0.000014  -0.000076
    19  C   -0.038449  -0.050100   0.001583   0.000438
    20  C   -0.006963   0.003126  -0.000094   0.000051
    21  H    0.000182  -0.000068  -0.000002  -0.000005
    22  H    0.002335   0.000148  -0.000010   0.000007
    23  H    0.000187  -0.000131   0.000009   0.000007
    24  C    0.403391   0.338699  -0.041394  -0.044060
    25  H    0.557389  -0.039113  -0.003424   0.003152
    26  C   -0.039113   4.979543   0.413482   0.415850
    27  H   -0.003424   0.413482   0.585267  -0.028362
    28  H    0.003152   0.415850  -0.028362   0.575347
 Mulliken charges:
               1
     1  C   -0.236021
     2  H    0.125346
     3  H    0.115272
     4  C    0.018322
     5  C   -0.341505
     6  H    0.114461
     7  H    0.117845
     8  H    0.117792
     9  C   -0.154256
    10  H    0.115801
    11  C   -0.355567
    12  H    0.119588
    13  H    0.120830
    14  H    0.116140
    15  C   -0.350727
    16  H    0.121058
    17  H    0.120474
    18  H    0.119352
    19  C    0.027222
    20  C   -0.342631
    21  H    0.115672
    22  H    0.119222
    23  H    0.116356
    24  C   -0.163543
    25  H    0.116803
    26  C   -0.235486
    27  H    0.118380
    28  H    0.123802
 Sum of Mulliken charges =  -0.00000
 Mulliken charges with hydrogens summed into heavy atoms:
               1
     1  C    0.004596
     4  C    0.018322
     5  C    0.008593
     9  C   -0.038454
    11  C    0.000991
    15  C    0.010156
    19  C    0.027222
    20  C    0.008618
    24  C   -0.046740
    26  C    0.006696
 Electronic spatial extent (au):  <R**2>=           2384.0062
 Charge=             -0.0000 electrons
 Dipole moment (field-independent basis, Debye):
    X=             -0.3027    Y=              0.1253    Z=              0.0460  Tot=              0.3308
 Quadrupole moment (field-independent basis, Debye-Ang):
   XX=            -64.3023   YY=            -63.2901   ZZ=            -67.3956
   XY=             -0.7521   XZ=             -1.2367   YZ=             -0.3487
 Traceless Quadrupole moment (field-independent basis, Debye-Ang):
   XX=              0.6937   YY=              1.7059   ZZ=             -2.3996
   XY=             -0.7521   XZ=             -1.2367   YZ=             -0.3487
 Octapole moment (field-independent basis, Debye-Ang**2):
  XXX=             -2.6682  YYY=             -2.9989  ZZZ=              0.9000  XYY=              0.6415
  XXY=              4.0909  XXZ=             -2.0918  XZZ=             -1.2120  YZZ=              1.4955
  YYZ=              0.6110  XYZ=              0.3641
 Hexadecapole moment (field-independent basis, Debye-Ang**3):
 XXXX=          -2435.7169 YYYY=           -693.4924 ZZZZ=           -166.6414 XXXY=             -2.3047
 XXXZ=            -14.7515 YYYX=             11.0526 YYYZ=             -1.4214 ZZZX=             -2.8119
 ZZZY=             -0.6411 XXYY=           -520.1246 XXZZ=           -449.2340 YYZZ=           -138.3649
 XXYZ=             -4.2785 YYXZ=             -0.5785 ZZXY=             -5.9188
 N-N= 5.190879931105D+02 E-N=-1.942888725576D+03  KE= 3.887471639726D+02
 No NMR shielding tensors so no spin-rotation constants.
 Leave Link  601 at Fri Sep 17 16:46:53 2021, MaxMem=   524288000 cpu:               0.2 elap:               0.4
 (Enter /opt/gaussian/g16_legacy/l9999.exe)
 1\1\GINC-TRUENO92\FOpt\RMP2-FC\6-31G(d,p)\C10H18\JRAMOS\17-Sep-2021\0\
 \#p opt mp2/6-31g(d,p)\\Conformer number 536. Energy MM = 23.242 kcal/
 mol\\0,1\C,-0.9462785931,-0.7601068266,0.147862112\H,-0.5915375559,-0.
 8676714055,-0.878346598\H,-1.02923225,-1.773884569,0.55018157\C,-2.296
 0608632,-0.0896413928,0.1993767604\C,-3.1801090881,-0.4991976062,1.345
 7508607\H,-2.6721202269,-0.3568368095,2.3021805878\H,-3.4381130996,-1.
 5582817876,1.2779304034\H,-4.1040117711,0.0774830351,1.3647871841\C,-2
 .6893271381,0.8544795074,-0.6757968979\H,-3.6724041022,1.294985931,-0.
 5341743646\C,-1.9119633285,1.3793285025,-1.8446344449\H,-1.7601647292,
 2.4565416531,-1.7536678188\H,-2.4509103049,1.2125860226,-2.779243809\H
 ,-0.933072128,0.9136799305,-1.9336763954\C,2.5417274413,0.5203350974,-
 0.9046509317\H,3.3562012908,1.2244562134,-0.7201982167\H,1.6181900179,
 1.085993327,-0.9987410096\H,2.7460622944,0.0469342121,-1.8674459684\C,
 2.4859560776,-0.5182067865,0.1812516299\C,3.7290694276,-1.3534684149,0
 .3171058907\H,3.9429848284,-1.887296186,-0.6115901445\H,3.6338346019,-
 2.0852947964,1.1178048764\H,4.5976908668,-0.7257065556,0.5285445022\C,
 1.4287767134,-0.7144875805,0.9915673296\H,1.5020542942,-1.5135634857,1
 .7250118959\C,0.1165660429,0.0111541663,0.9537155149\H,-0.2468377758,0
 .1555801479,1.9746565173\H,0.2231290578,1.0081064563,0.524338964\\Vers
 ion=EM64L-G16RevA.03\State=1-A\HF=-389.1567534\MP2=-390.5738646\RMSD=5
 .132e-09\RMSF=3.183e-06\Dipole=0.0993308,0.0119199,-0.0592181\PG=C01 [
 X(C10H18)]\\@


 THE MORE POWERFUL THE METHOD, THE MORE CATASTROPHIC THE ERRORS.
     -- M.D. KAMEN
 Job cpu time:       0 days  0 hours 47 minutes 15.4 seconds.
 Elapsed time:       0 days  0 hours 47 minutes 17.6 seconds.
 File lengths (MBytes):  RWF=     32 Int=      0 D2E=      0 Chk=      7 Scr=      1
 Normal termination of Gaussian 16 at Fri Sep 17 16:46:54 2021.
