 Entering Gaussian System, Link 0=/opt/gaussian/g16_legacy/g16
 Input=01-IsoP_890_gaussian.com
 Output=01-IsoP_890_gaussian.log
 Initial command:
 /opt/gaussian/g16_legacy/l1.exe "/scratch-local/jramos/2661432/Gau-11679.inp" -scrdir="/scratch-local/jramos/2661432/"
 Entering Link 1 = /opt/gaussian/g16_legacy/l1.exe PID=     11680.
  
 Copyright (c) 1988,1990,1992,1993,1995,1998,2003,2009,2016,
            Gaussian, Inc.  All Rights Reserved.
  
 This is part of the Gaussian(R) 16 program.  It is based on
 the Gaussian(R) 09 system (copyright 2009, Gaussian, Inc.),
 the Gaussian(R) 03 system (copyright 2003, Gaussian, Inc.),
 the Gaussian(R) 98 system (copyright 1998, Gaussian, Inc.),
 the Gaussian(R) 94 system (copyright 1995, Gaussian, Inc.),
 the Gaussian 92(TM) system (copyright 1992, Gaussian, Inc.),
 the Gaussian 90(TM) system (copyright 1990, Gaussian, Inc.),
 the Gaussian 88(TM) system (copyright 1988, Gaussian, Inc.),
 the Gaussian 86(TM) system (copyright 1986, Carnegie Mellon
 University), and the Gaussian 82(TM) system (copyright 1983,
 Carnegie Mellon University). Gaussian is a federally registered
 trademark of Gaussian, Inc.
  
 This software contains proprietary and confidential information,
 including trade secrets, belonging to Gaussian, Inc.
  
 This software is provided under written license and may be
 used, copied, transmitted, or stored only in accord with that
 written license.
  
 The following legend is applicable only to US Government
 contracts under FAR:
  
                    RESTRICTED RIGHTS LEGEND
  
 Use, reproduction and disclosure by the US Government is
 subject to restrictions as set forth in subparagraphs (a)
 and (c) of the Commercial Computer Software - Restricted
 Rights clause in FAR 52.227-19.
  
 Gaussian, Inc.
 340 Quinnipiac St., Bldg. 40, Wallingford CT 06492
  
  
 ---------------------------------------------------------------
 Warning -- This program may not be used in any manner that
 competes with the business of Gaussian, Inc. or will provide
 assistance to any competitor of Gaussian, Inc.  The licensee
 of this program is prohibited from giving any competitor of
 Gaussian, Inc. access to this program.  By using this program,
 the user acknowledges that Gaussian, Inc. is engaged in the
 business of creating and licensing software in the field of
 computational chemistry and represents and warrants to the
 licensee that it is not a competitor of Gaussian, Inc. and that
 it will not use this program in any manner prohibited above.
 ---------------------------------------------------------------
  

 Cite this work as:
 Gaussian 16, Revision A.03,
 M. J. Frisch, G. W. Trucks, H. B. Schlegel, G. E. Scuseria, 
 M. A. Robb, J. R. Cheeseman, G. Scalmani, V. Barone, 
 G. A. Petersson, H. Nakatsuji, X. Li, M. Caricato, A. V. Marenich, 
 J. Bloino, B. G. Janesko, R. Gomperts, B. Mennucci, H. P. Hratchian, 
 J. V. Ortiz, A. F. Izmaylov, J. L. Sonnenberg, D. Williams-Young, 
 F. Ding, F. Lipparini, F. Egidi, J. Goings, B. Peng, A. Petrone, 
 T. Henderson, D. Ranasinghe, V. G. Zakrzewski, J. Gao, N. Rega, 
 G. Zheng, W. Liang, M. Hada, M. Ehara, K. Toyota, R. Fukuda, 
 J. Hasegawa, M. Ishida, T. Nakajima, Y. Honda, O. Kitao, H. Nakai, 
 T. Vreven, K. Throssell, J. A. Montgomery, Jr., J. E. Peralta, 
 F. Ogliaro, M. J. Bearpark, J. J. Heyd, E. N. Brothers, K. N. Kudin, 
 V. N. Staroverov, T. A. Keith, R. Kobayashi, J. Normand, 
 K. Raghavachari, A. P. Rendell, J. C. Burant, S. S. Iyengar, 
 J. Tomasi, M. Cossi, J. M. Millam, M. Klene, C. Adamo, R. Cammi, 
 J. W. Ochterski, R. L. Martin, K. Morokuma, O. Farkas, 
 J. B. Foresman, and D. J. Fox, Gaussian, Inc., Wallingford CT, 2016.
 
 ******************************************
 Gaussian 16:  EM64L-G16RevA.03 25-Dec-2016
                17-Sep-2021 
 ******************************************
 %chk=01-IsoP_890_gaussian.chk
 %nproc=1
 Will use up to    1 processors via shared memory.
 %mem=4000Mb
 ---------------------
 #p opt mp2/6-31g(d,p)
 ---------------------
 1/18=20,19=15,38=1/1,3;
 2/9=110,12=2,17=6,18=5,40=1/2;
 3/5=1,6=6,7=101,11=9,25=1,30=1,71=1/1,2,3;
 4//1;
 5/5=2,38=5/2;
 8/6=4,10=2/1;
 9/15=2,16=-3/6;
 10/5=1/2;
 6/7=2,8=2,9=2,10=2/1;
 7/12=2/1,2,3,16;
 1/18=20,19=15/3(2);
 2/9=110/2;
 99//99;
 2/9=110/2;
 3/5=1,6=6,7=101,11=9,25=1,30=1,71=1/1,2,3;
 4/5=5,16=3,69=1/1;
 5/5=2,38=5/2;
 8/6=4,10=2/1;
 9/15=2,16=-3/6;
 10/5=1/2;
 7/12=2/1,2,3,16;
 1/18=20,19=15/3(-8);
 2/9=110/2;
 6/7=2,8=2,9=2,10=2/1;
 99//99;
 Leave Link    1 at Fri Sep 17 16:11:53 2021, MaxMem=   524288000 cpu:               0.0 elap:               0.3
 (Enter /opt/gaussian/g16_legacy/l101.exe)
 -------------------------------------------------
 Conformer number 890. Energy MM = 23.287 kcal/mol
 -------------------------------------------------
 Symbolic Z-matrix:
 Charge =  0 Multiplicity = 1
 C                    -0.7144    0.6146    0.1936 
 H                    -0.843     1.4854   -0.4603 
 H                    -0.1221    0.9842    1.0415 
 C                    -2.0546    0.1279    0.7051 
 C                    -2.0131   -0.5599    2.0459 
 H                    -3.0056   -0.8837    2.3768 
 H                    -1.3743   -1.4476    2.0016 
 H                    -1.6153    0.1181    2.8081 
 C                    -3.2248    0.2971    0.0583 
 H                    -4.137    -0.0718    0.5266 
 C                    -3.4437    0.9308   -1.279 
 H                    -4.026     0.2536   -1.9122 
 H                    -4.0106    1.8593   -1.162 
 H                    -2.5167    1.1562   -1.8109 
 C                     2.8926   -0.983     0.692 
 H                     3.5081   -0.3889    1.3763 
 H                     3.4403   -1.8975    0.4424 
 H                     1.9936   -1.2679    1.2432 
 C                     2.6036   -0.1965   -0.5567 
 C                     3.8272    0.3664   -1.2317 
 H                     3.5809    0.9264   -2.14 
 H                     4.5087   -0.4425   -1.515 
 H                     4.3553    1.0462   -0.555 
 C                     1.3756    0.026    -1.0646 
 H                     1.2889    0.6291   -1.9687 
 C                     0.0586   -0.484    -0.5431 
 H                     0.1952   -1.358     0.1015 
 H                    -0.5274   -0.8399   -1.4004 
 
 ITRead=  0  0  0  0  0  0  0  0  0  0  0  0  0  0  0  0  0  0  0  0
 ITRead=  0  0  0  0  0  0  0  0
 MicOpt= -1 -1 -1 -1 -1 -1 -1 -1 -1 -1 -1 -1 -1 -1 -1 -1 -1 -1 -1 -1
 MicOpt= -1 -1 -1 -1 -1 -1 -1 -1
 NAtoms=     28 NQM=       28 NQMF=       0 NMMI=      0 NMMIF=      0
                NMic=       0 NMicF=      0.
                    Isotopes and Nuclear Properties:
 (Nuclear quadrupole moments (NQMom) in fm**2, nuclear magnetic moments (NMagM)
  in nuclear magnetons)

  Atom         1           2           3           4           5           6           7           8           9          10
 IAtWgt=          12           1           1          12          12           1           1           1          12           1
 AtmWgt=  12.0000000   1.0078250   1.0078250  12.0000000  12.0000000   1.0078250   1.0078250   1.0078250  12.0000000   1.0078250
 NucSpn=           0           1           1           0           0           1           1           1           0           1
 AtZEff=  -0.0000000  -0.0000000  -0.0000000  -0.0000000  -0.0000000  -0.0000000  -0.0000000  -0.0000000  -0.0000000  -0.0000000
 NQMom=    0.0000000   0.0000000   0.0000000   0.0000000   0.0000000   0.0000000   0.0000000   0.0000000   0.0000000   0.0000000
 NMagM=    0.0000000   2.7928460   2.7928460   0.0000000   0.0000000   2.7928460   2.7928460   2.7928460   0.0000000   2.7928460
 AtZNuc=   6.0000000   1.0000000   1.0000000   6.0000000   6.0000000   1.0000000   1.0000000   1.0000000   6.0000000   1.0000000

  Atom        11          12          13          14          15          16          17          18          19          20
 IAtWgt=          12           1           1           1          12           1           1           1          12          12
 AtmWgt=  12.0000000   1.0078250   1.0078250   1.0078250  12.0000000   1.0078250   1.0078250   1.0078250  12.0000000  12.0000000
 NucSpn=           0           1           1           1           0           1           1           1           0           0
 AtZEff=  -0.0000000  -0.0000000  -0.0000000  -0.0000000  -0.0000000  -0.0000000  -0.0000000  -0.0000000  -0.0000000  -0.0000000
 NQMom=    0.0000000   0.0000000   0.0000000   0.0000000   0.0000000   0.0000000   0.0000000   0.0000000   0.0000000   0.0000000
 NMagM=    0.0000000   2.7928460   2.7928460   2.7928460   0.0000000   2.7928460   2.7928460   2.7928460   0.0000000   0.0000000
 AtZNuc=   6.0000000   1.0000000   1.0000000   1.0000000   6.0000000   1.0000000   1.0000000   1.0000000   6.0000000   6.0000000

  Atom        21          22          23          24          25          26          27          28
 IAtWgt=           1           1           1          12           1          12           1           1
 AtmWgt=   1.0078250   1.0078250   1.0078250  12.0000000   1.0078250  12.0000000   1.0078250   1.0078250
 NucSpn=           1           1           1           0           1           0           1           1
 AtZEff=  -0.0000000  -0.0000000  -0.0000000  -0.0000000  -0.0000000  -0.0000000  -0.0000000  -0.0000000
 NQMom=    0.0000000   0.0000000   0.0000000   0.0000000   0.0000000   0.0000000   0.0000000   0.0000000
 NMagM=    2.7928460   2.7928460   2.7928460   0.0000000   2.7928460   0.0000000   2.7928460   2.7928460
 AtZNuc=   1.0000000   1.0000000   1.0000000   6.0000000   1.0000000   6.0000000   1.0000000   1.0000000
 Leave Link  101 at Fri Sep 17 16:11:53 2021, MaxMem=   524288000 cpu:               0.3 elap:               0.3
 (Enter /opt/gaussian/g16_legacy/l103.exe)

 GradGradGradGradGradGradGradGradGradGradGradGradGradGradGradGradGradGrad
 Berny optimization.
 Initialization pass.
                           ----------------------------
                           !    Initial Parameters    !
                           ! (Angstroms and Degrees)  !
 --------------------------                            --------------------------
 ! Name  Definition              Value          Derivative Info.                !
 --------------------------------------------------------------------------------
 ! R1    R(1,2)                  1.0965         estimate D2E/DX2                !
 ! R2    R(1,3)                  1.0983         estimate D2E/DX2                !
 ! R3    R(1,4)                  1.5148         estimate D2E/DX2                !
 ! R4    R(1,26)                 1.5321         estimate D2E/DX2                !
 ! R5    R(4,5)                  1.5075         estimate D2E/DX2                !
 ! R6    R(4,9)                  1.3477         estimate D2E/DX2                !
 ! R7    R(5,6)                  1.0952         estimate D2E/DX2                !
 ! R8    R(5,7)                  1.0945         estimate D2E/DX2                !
 ! R9    R(5,8)                  1.0949         estimate D2E/DX2                !
 ! R10   R(9,10)                 1.0897         estimate D2E/DX2                !
 ! R11   R(9,11)                 1.4959         estimate D2E/DX2                !
 ! R12   R(11,12)                1.0948         estimate D2E/DX2                !
 ! R13   R(11,13)                1.0942         estimate D2E/DX2                !
 ! R14   R(11,14)                1.0923         estimate D2E/DX2                !
 ! R15   R(15,16)                1.0955         estimate D2E/DX2                !
 ! R16   R(15,17)                1.0948         estimate D2E/DX2                !
 ! R17   R(15,18)                1.0923         estimate D2E/DX2                !
 ! R18   R(15,19)                1.5038         estimate D2E/DX2                !
 ! R19   R(19,20)                1.5065         estimate D2E/DX2                !
 ! R20   R(19,24)                1.3474         estimate D2E/DX2                !
 ! R21   R(20,21)                1.0951         estimate D2E/DX2                !
 ! R22   R(20,22)                1.095          estimate D2E/DX2                !
 ! R23   R(20,23)                1.095          estimate D2E/DX2                !
 ! R24   R(24,25)                1.0902         estimate D2E/DX2                !
 ! R25   R(24,26)                1.5055         estimate D2E/DX2                !
 ! R26   R(26,27)                1.0946         estimate D2E/DX2                !
 ! R27   R(26,28)                1.0977         estimate D2E/DX2                !
 ! A1    A(2,1,3)              104.8546         estimate D2E/DX2                !
 ! A2    A(2,1,4)              110.6556         estimate D2E/DX2                !
 ! A3    A(2,1,26)             109.9912         estimate D2E/DX2                !
 ! A4    A(3,1,4)              108.9385         estimate D2E/DX2                !
 ! A5    A(3,1,26)             109.9029         estimate D2E/DX2                !
 ! A6    A(4,1,26)             112.2328         estimate D2E/DX2                !
 ! A7    A(1,4,5)              114.9966         estimate D2E/DX2                !
 ! A8    A(1,4,9)              124.4583         estimate D2E/DX2                !
 ! A9    A(5,4,9)              120.5332         estimate D2E/DX2                !
 ! A10   A(4,5,6)              112.2522         estimate D2E/DX2                !
 ! A11   A(4,5,7)              110.4934         estimate D2E/DX2                !
 ! A12   A(4,5,8)              110.2809         estimate D2E/DX2                !
 ! A13   A(6,5,7)              107.5385         estimate D2E/DX2                !
 ! A14   A(6,5,8)              107.5778         estimate D2E/DX2                !
 ! A15   A(7,5,8)              108.5623         estimate D2E/DX2                !
 ! A16   A(4,9,10)             118.5607         estimate D2E/DX2                !
 ! A17   A(4,9,11)             127.5361         estimate D2E/DX2                !
 ! A18   A(10,9,11)            113.8961         estimate D2E/DX2                !
 ! A19   A(9,11,12)            109.4406         estimate D2E/DX2                !
 ! A20   A(9,11,13)            109.8586         estimate D2E/DX2                !
 ! A21   A(9,11,14)            113.4877         estimate D2E/DX2                !
 ! A22   A(12,11,13)           108.1302         estimate D2E/DX2                !
 ! A23   A(12,11,14)           107.3012         estimate D2E/DX2                !
 ! A24   A(13,11,14)           108.4621         estimate D2E/DX2                !
 ! A25   A(16,15,17)           108.321          estimate D2E/DX2                !
 ! A26   A(16,15,18)           106.7773         estimate D2E/DX2                !
 ! A27   A(16,15,19)           110.0621         estimate D2E/DX2                !
 ! A28   A(17,15,18)           107.9936         estimate D2E/DX2                !
 ! A29   A(17,15,19)           110.1031         estimate D2E/DX2                !
 ! A30   A(18,15,19)           113.4068         estimate D2E/DX2                !
 ! A31   A(15,19,20)           114.2912         estimate D2E/DX2                !
 ! A32   A(15,19,24)           125.0669         estimate D2E/DX2                !
 ! A33   A(20,19,24)           120.6394         estimate D2E/DX2                !
 ! A34   A(19,20,21)           112.3343         estimate D2E/DX2                !
 ! A35   A(19,20,22)           110.2057         estimate D2E/DX2                !
 ! A36   A(19,20,23)           110.2912         estimate D2E/DX2                !
 ! A37   A(21,20,22)           107.6466         estimate D2E/DX2                !
 ! A38   A(21,20,23)           107.673          estimate D2E/DX2                !
 ! A39   A(22,20,23)           108.5634         estimate D2E/DX2                !
 ! A40   A(19,24,25)           118.4516         estimate D2E/DX2                !
 ! A41   A(19,24,26)           127.6446         estimate D2E/DX2                !
 ! A42   A(25,24,26)           113.896          estimate D2E/DX2                !
 ! A43   A(1,26,24)            111.4094         estimate D2E/DX2                !
 ! A44   A(1,26,27)            110.6323         estimate D2E/DX2                !
 ! A45   A(1,26,28)            109.7964         estimate D2E/DX2                !
 ! A46   A(24,26,27)           111.4273         estimate D2E/DX2                !
 ! A47   A(24,26,28)           107.8358         estimate D2E/DX2                !
 ! A48   A(27,26,28)           105.5253         estimate D2E/DX2                !
 ! D1    D(2,1,4,5)           -151.7246         estimate D2E/DX2                !
 ! D2    D(2,1,4,9)             27.0222         estimate D2E/DX2                !
 ! D3    D(3,1,4,5)            -36.9524         estimate D2E/DX2                !
 ! D4    D(3,1,4,9)            141.7943         estimate D2E/DX2                !
 ! D5    D(26,1,4,5)            84.9905         estimate D2E/DX2                !
 ! D6    D(26,1,4,9)           -96.2628         estimate D2E/DX2                !
 ! D7    D(2,1,26,24)           55.3222         estimate D2E/DX2                !
 ! D8    D(2,1,26,27)          179.8578         estimate D2E/DX2                !
 ! D9    D(2,1,26,28)          -64.0701         estimate D2E/DX2                !
 ! D10   D(3,1,26,24)          -59.629          estimate D2E/DX2                !
 ! D11   D(3,1,26,27)           64.9066         estimate D2E/DX2                !
 ! D12   D(3,1,26,28)         -179.0213         estimate D2E/DX2                !
 ! D13   D(4,1,26,24)          178.9794         estimate D2E/DX2                !
 ! D14   D(4,1,26,27)          -56.485          estimate D2E/DX2                !
 ! D15   D(4,1,26,28)           59.5871         estimate D2E/DX2                !
 ! D16   D(1,4,5,6)            179.4132         estimate D2E/DX2                !
 ! D17   D(1,4,5,7)            -60.5526         estimate D2E/DX2                !
 ! D18   D(1,4,5,8)             59.4751         estimate D2E/DX2                !
 ! D19   D(9,4,5,6)              0.613          estimate D2E/DX2                !
 ! D20   D(9,4,5,7)            120.6472         estimate D2E/DX2                !
 ! D21   D(9,4,5,8)           -119.3252         estimate D2E/DX2                !
 ! D22   D(1,4,9,10)          -178.5584         estimate D2E/DX2                !
 ! D23   D(1,4,9,11)             2.4771         estimate D2E/DX2                !
 ! D24   D(5,4,9,10)             0.1228         estimate D2E/DX2                !
 ! D25   D(5,4,9,11)          -178.8417         estimate D2E/DX2                !
 ! D26   D(4,9,11,12)          127.8621         estimate D2E/DX2                !
 ! D27   D(4,9,11,13)         -113.5613         estimate D2E/DX2                !
 ! D28   D(4,9,11,14)            8.0443         estimate D2E/DX2                !
 ! D29   D(10,9,11,12)         -51.1431         estimate D2E/DX2                !
 ! D30   D(10,9,11,13)          67.4335         estimate D2E/DX2                !
 ! D31   D(10,9,11,14)        -170.961          estimate D2E/DX2                !
 ! D32   D(16,15,19,20)         52.5835         estimate D2E/DX2                !
 ! D33   D(16,15,19,24)       -126.8333         estimate D2E/DX2                !
 ! D34   D(17,15,19,20)        -66.7587         estimate D2E/DX2                !
 ! D35   D(17,15,19,24)        113.8245         estimate D2E/DX2                !
 ! D36   D(18,15,19,20)        172.1176         estimate D2E/DX2                !
 ! D37   D(18,15,19,24)         -7.2992         estimate D2E/DX2                !
 ! D38   D(15,19,20,21)        179.5991         estimate D2E/DX2                !
 ! D39   D(15,19,20,22)         59.5709         estimate D2E/DX2                !
 ! D40   D(15,19,20,23)        -60.2805         estimate D2E/DX2                !
 ! D41   D(24,19,20,21)         -0.9557         estimate D2E/DX2                !
 ! D42   D(24,19,20,22)       -120.9839         estimate D2E/DX2                !
 ! D43   D(24,19,20,23)        119.1647         estimate D2E/DX2                !
 ! D44   D(15,19,24,25)        178.8555         estimate D2E/DX2                !
 ! D45   D(15,19,24,26)         -2.2279         estimate D2E/DX2                !
 ! D46   D(20,19,24,25)         -0.5267         estimate D2E/DX2                !
 ! D47   D(20,19,24,26)        178.39           estimate D2E/DX2                !
 ! D48   D(19,24,26,1)         103.657          estimate D2E/DX2                !
 ! D49   D(19,24,26,27)        -20.4307         estimate D2E/DX2                !
 ! D50   D(19,24,26,28)       -135.7921         estimate D2E/DX2                !
 ! D51   D(25,24,26,1)         -77.3848         estimate D2E/DX2                !
 ! D52   D(25,24,26,27)        158.5275         estimate D2E/DX2                !
 ! D53   D(25,24,26,28)         43.1661         estimate D2E/DX2                !
 --------------------------------------------------------------------------------
 Trust Radius=3.00D-01 FncErr=1.00D-07 GrdErr=1.00D-07 EigMax=2.50D+02 EigMin=1.00D-04
 Number of steps in this run=    138 maximum allowed number of steps=    168.
 GradGradGradGradGradGradGradGradGradGradGradGradGradGradGradGradGradGrad

 Leave Link  103 at Fri Sep 17 16:11:53 2021, MaxMem=   524288000 cpu:               0.1 elap:               0.1
 (Enter /opt/gaussian/g16_legacy/l202.exe)
                          Input orientation:                          
 ---------------------------------------------------------------------
 Center     Atomic      Atomic             Coordinates (Angstroms)
 Number     Number       Type             X           Y           Z
 ---------------------------------------------------------------------
      1          6           0       -0.714400    0.614600    0.193600
      2          1           0       -0.843000    1.485400   -0.460300
      3          1           0       -0.122100    0.984200    1.041500
      4          6           0       -2.054600    0.127900    0.705100
      5          6           0       -2.013100   -0.559900    2.045900
      6          1           0       -3.005600   -0.883700    2.376800
      7          1           0       -1.374300   -1.447600    2.001600
      8          1           0       -1.615300    0.118100    2.808100
      9          6           0       -3.224800    0.297100    0.058300
     10          1           0       -4.137000   -0.071800    0.526600
     11          6           0       -3.443700    0.930800   -1.279000
     12          1           0       -4.026000    0.253600   -1.912200
     13          1           0       -4.010600    1.859300   -1.162000
     14          1           0       -2.516700    1.156200   -1.810900
     15          6           0        2.892600   -0.983000    0.692000
     16          1           0        3.508100   -0.388900    1.376300
     17          1           0        3.440300   -1.897500    0.442400
     18          1           0        1.993600   -1.267900    1.243200
     19          6           0        2.603600   -0.196500   -0.556700
     20          6           0        3.827200    0.366400   -1.231700
     21          1           0        3.580900    0.926400   -2.140000
     22          1           0        4.508700   -0.442500   -1.515000
     23          1           0        4.355300    1.046200   -0.555000
     24          6           0        1.375600    0.026000   -1.064600
     25          1           0        1.288900    0.629100   -1.968700
     26          6           0        0.058600   -0.484000   -0.543100
     27          1           0        0.195200   -1.358000    0.101500
     28          1           0       -0.527400   -0.839900   -1.400400
 ---------------------------------------------------------------------
                    Distance matrix (angstroms):
                    1          2          3          4          5
     1  C    0.000000
     2  H    1.096547   0.000000
     3  H    1.098343   1.739627   0.000000
     4  C    1.514809   2.160773   2.140320   0.000000
     5  C    2.548938   3.439974   2.639876   1.507493   0.000000
     6  H    3.501551   4.282360   3.686007   2.173089   1.095170
     7  H    2.820816   3.865970   2.898870   2.150795   1.094550
     8  H    2.809581   3.626072   2.469950   2.148416   1.094933
     9  C    2.534013   2.711821   3.326490   1.347719   2.480568
    10  H    3.506597   3.774822   4.183262   2.099555   2.656589
    11  C    3.117308   2.782354   4.052234   2.551647   3.914558
    12  H    3.940991   3.709021   4.949602   3.279097   4.514433
    13  H    3.775164   3.265865   4.554300   3.210879   4.486999
    14  H    2.749479   2.175722   3.728254   2.757026   4.251296
    15  C    3.976327   4.623365   3.616689   5.070410   5.106658
    16  H    4.498366   5.081158   3.895619   5.626831   5.564284
    17  H    4.861489   5.532227   4.621018   5.862182   5.839517
    18  H    3.461030   4.304518   3.096583   4.315754   4.147196
    19  C    3.497136   3.836291   3.373090   4.836962   5.312203
    20  C    4.766468   4.863948   4.598487   6.197068   6.760902
    21  H    4.898215   4.764952   4.882365   6.363258   7.143086
    22  H    5.596208   5.785316   5.478638   6.952058   7.431532
    23  H    5.142814   5.217680   4.753921   6.596813   7.064047
    24  C    2.509505   2.723456   2.756249   3.861152   4.637001
    25  H    2.947705   2.748366   3.343400   4.310383   5.332348
    26  C    1.532050   2.167550   2.167769   2.529435   3.316719
    27  H    2.174168   3.078701   2.543655   2.762939   3.048646
    28  H    2.165958   2.527926   3.074815   2.775267   3.763335
                    6          7          8          9         10
     6  H    0.000000
     7  H    1.766323   0.000000
     8  H    1.767076   1.777622   0.000000
     9  C    2.611088   3.200741   3.191227   0.000000
    10  H    2.315705   3.420667   3.405918   1.089725   0.000000
    11  C    4.104780   4.549894   4.550595   1.495949   2.178546
    12  H    4.553042   5.024284   5.301987   2.127601   2.462915
    13  H    4.588810   5.281480   4.952871   2.132389   2.568364
    14  H    4.683700   4.756050   4.819267   2.175630   3.097945
    15  C    6.134914   4.487465   5.100143   6.281944   7.090340
    16  H    6.608639   5.034846   5.343812   6.894901   7.698707
    17  H    6.805830   5.080737   5.934498   7.027614   7.794597
    18  H    5.140492   3.456908   4.170620   5.575384   6.287164
    19  C    6.367165   4.892222   5.405550   5.881506   6.828234
    20  C    7.827591   6.387521   6.782510   7.169352   8.167749
    21  H    8.189013   6.880606   7.220633   7.179561   8.226369
    22  H    8.473811   6.927221   7.517103   7.926494   8.891214
    23  H    8.154926   6.751560   6.915192   7.641675   8.633594
    24  C    5.644971   4.374360   4.894055   4.743214   5.738488
    25  H    6.294018   5.212351   5.613672   4.959077   6.013167
    26  C    4.251458   3.075260   3.794075   3.428194   4.349394
    27  H    3.955638   2.466118   3.575257   3.799687   4.539050
    28  H    4.517813   3.558109   4.451153   3.270557   4.163234
                   11         12         13         14         15
    11  C    0.000000
    12  H    1.094813   0.000000
    13  H    1.094156   1.772374   0.000000
    14  H    1.092269   1.761515   1.774023   0.000000
    15  C    6.906241   7.495203   7.692214   6.332552   0.000000
    16  H    7.557761   8.245587   8.247922   6.988833   1.095473
    17  H    7.638845   8.118929   8.497268   7.063165   1.094799
    18  H    6.384356   6.964704   7.184343   5.962096   1.092333
    19  C    6.193736   6.781708   6.952722   5.442452   1.503780
    20  C    7.292926   7.883435   7.979017   6.419059   2.528830
    21  H    7.077171   7.639992   7.710879   6.110797   3.484220
    22  H    8.073557   8.572247   8.831838   7.211078   2.788327
    23  H    7.833383   8.527391   8.427210   6.986685   2.795023
    24  C    4.908185   5.472432   5.690486   4.121203   2.530813
    25  H    4.792099   5.328448   5.499896   3.845169   3.500006
    26  C    3.848287   4.370634   4.736294   3.306016   3.131458
    27  H    4.515083   4.946794   5.443915   4.163277   2.786626
    28  H    3.413931   3.701065   4.413071   2.847848   4.011859
                   16         17         18         19         20
    16  H    0.000000
    17  H    1.775568   0.000000
    18  H    1.756151   1.769355   0.000000
    19  C    2.142808   2.142818   2.181659   0.000000
    20  C    2.733856   2.842102   3.486855   1.506545   0.000000
    21  H    3.754954   3.829226   4.333649   2.173214   1.095113
    22  H    3.060015   2.662690   3.822915   2.146686   1.094998
    23  H    2.550917   3.239969   3.763802   2.147733   1.094961
    24  C    3.267674   3.199045   2.716991   1.347387   2.480753
    25  H    4.141280   4.101906   3.796250   2.098522   2.656153
    26  C    3.948695   3.795403   2.747652   2.561224   3.924245
    27  H    3.679616   3.307257   2.132097   2.753670   4.235847
    28  H    4.919220   4.500786   3.677940   3.305897   4.521743
                   21         22         23         24         25
    21  H    0.000000
    22  H    1.767859   0.000000
    23  H    1.768127   1.778021   0.000000
    24  C    2.613533   3.199792   3.190472   0.000000
    25  H    2.317541   3.423636   3.402254   1.090249   0.000000
    26  C    4.116542   4.555184   4.561062   1.505507   2.187456
    27  H    4.658945   4.696541   4.849495   2.160692   3.070908
    28  H    4.532654   5.053055   5.302154   2.117535   2.404136
                   26         27         28
    26  C    0.000000
    27  H    1.094552   0.000000
    28  H    1.097736   1.745360   0.000000
 Stoichiometry    C10H18
 Framework group  C1[X(C10H18)]
 Deg. of freedom    78
 Full point group                 C1      NOp   1
 Largest Abelian subgroup         C1      NOp   1
 Largest concise Abelian subgroup C1      NOp   1
                         Standard orientation:                         
 ---------------------------------------------------------------------
 Center     Atomic      Atomic             Coordinates (Angstroms)
 Number     Number       Type             X           Y           Z
 ---------------------------------------------------------------------
      1          6           0        0.745835   -0.045516    0.580366
      2          1           0        0.871511   -1.012130    1.082641
      3          1           0        0.286594    0.606585    1.335495
      4          6           0        2.090163    0.530309    0.185586
      5          6           0        2.144011    2.035412    0.120012
      6          1           0        3.137184    2.403108   -0.158926
      7          1           0        1.432506    2.412375   -0.621405
      8          1           0        1.893320    2.466973    1.094582
      9          6           0        3.189325   -0.205992   -0.071419
     10          1           0        4.114845    0.310464   -0.324773
     11          6           0        3.306991   -1.697302   -0.075144
     12          1           0        3.755062   -2.025110   -1.018749
     13          1           0        3.958976   -2.020741    0.741850
     14          1           0        2.347625   -2.209926    0.024275
     15          6           0       -2.901815    1.323907   -0.213680
     16          1           0       -3.383881    1.735166    0.679931
     17          1           0       -3.548686    1.520186   -1.074852
     18          1           0       -1.972940    1.880931   -0.355474
     19          6           0       -2.691938   -0.156310   -0.051616
     20          6           0       -3.933046   -0.920069    0.330483
     21          1           0       -3.745669   -1.994152    0.432992
     22          1           0       -4.707401   -0.789546   -0.432641
     23          1           0       -4.322300   -0.557706    1.287622
     24          6           0       -1.515329   -0.793322   -0.210547
     25          1           0       -1.481886   -1.870823   -0.047707
     26          6           0       -0.194776   -0.197064   -0.619410
     27          1           0       -0.329696    0.763029   -1.127408
     28          1           0        0.258303   -0.863001   -1.365246
 ---------------------------------------------------------------------
 Rotational constants (GHZ):           2.4778678           0.5324403           0.4581670
 Leave Link  202 at Fri Sep 17 16:11:53 2021, MaxMem=   524288000 cpu:               0.1 elap:               0.1
 (Enter /opt/gaussian/g16_legacy/l301.exe)
 Standard basis: 6-31G(d,p) (6D, 7F)
 Ernie: Thresh=  0.10000D-02 Tol=  0.10000D-05 Strict=F.
 There are   240 symmetry adapted cartesian basis functions of A   symmetry.
 There are   240 symmetry adapted basis functions of A   symmetry.
   240 basis functions,   406 primitive gaussians,   240 cartesian basis functions
    39 alpha electrons       39 beta electrons
       nuclear repulsion energy       513.2787746531 Hartrees.
 IExCor=    0 DFT=F Ex=HF Corr=None ExCW=0 ScaHFX=  1.000000
 ScaDFX=  1.000000  1.000000  1.000000  1.000000 ScalE2=  1.000000  1.000000
 IRadAn=      5 IRanWt=     -1 IRanGd=            0 ICorTp=0 IEmpDi=  4
 NAtoms=   28 NActive=   28 NUniq=   28 SFac= 1.00D+00 NAtFMM=   60 NAOKFM=F Big=F
 Integral buffers will be    131072 words long.
 Raffenetti 1 integral format.
 Two-electron integral symmetry is turned on.
 Leave Link  301 at Fri Sep 17 16:11:54 2021, MaxMem=   524288000 cpu:               0.1 elap:               0.2
 (Enter /opt/gaussian/g16_legacy/l302.exe)
 NPDir=0 NMtPBC=     1 NCelOv=     1 NCel=       1 NClECP=     1 NCelD=      1
         NCelK=      1 NCelE2=     1 NClLst=     1 CellRange=     0.0.
 One-electron integrals computed using PRISM.
 One-electron integral symmetry used in STVInt
 NBasis=   240 RedAO= T EigKep=  2.09D-03  NBF=   240
 NBsUse=   240 1.00D-06 EigRej= -1.00D+00 NBFU=   240
 Leave Link  302 at Fri Sep 17 16:11:55 2021, MaxMem=   524288000 cpu:               0.4 elap:               0.6
 (Enter /opt/gaussian/g16_legacy/l303.exe)
 DipDrv:  MaxL=1.
 Leave Link  303 at Fri Sep 17 16:11:55 2021, MaxMem=   524288000 cpu:               0.1 elap:               0.1
 (Enter /opt/gaussian/g16_legacy/l401.exe)
 ExpMin= 1.61D-01 ExpMax= 3.05D+03 ExpMxC= 4.57D+02 IAcc=3 IRadAn=         5 AccDes= 0.00D+00
 Harris functional with IExCor=  205 and IRadAn=       5 diagonalized for initial guess.
 HarFok:  IExCor=  205 AccDes= 0.00D+00 IRadAn=         5 IDoV= 1 UseB2=F ITyADJ=14
 ICtDFT=  3500011 ScaDFX=  1.000000  1.000000  1.000000  1.000000
 FoFCou: FMM=F IPFlag=           0 FMFlag=      100000 FMFlg1=           0
         NFxFlg=           0 DoJE=T BraDBF=F KetDBF=T FulRan=T
         wScrn=  0.000000 ICntrl=       500 IOpCl=  0 I1Cent=   200000004 NGrid=           0
         NMat0=    1 NMatS0=      1 NMatT0=    0 NMatD0=    1 NMtDS0=    0 NMtDT0=    0
 Petite list used in FoFCou.
 Harris En= -390.110060137763    
 JPrj=0 DoOrth=F DoCkMO=F.
 Leave Link  401 at Fri Sep 17 16:12:07 2021, MaxMem=   524288000 cpu:              12.0 elap:              12.2
 (Enter /opt/gaussian/g16_legacy/l502.exe)
 Keep R1 ints in memory in canonical form, NReq=425198025.
 FoFCou: FMM=F IPFlag=           0 FMFlag=           0 FMFlg1=           0
         NFxFlg=           0 DoJE=F BraDBF=F KetDBF=F FulRan=T
         wScrn=  0.000000 ICntrl=       600 IOpCl=  0 I1Cent=           0 NGrid=           0
         NMat0=    1 NMatS0=  28920 NMatT0=    0 NMatD0=    1 NMtDS0=    0 NMtDT0=    0
 Symmetry not used in FoFCou.
 Two-electron integral symmetry not used.
 Closed shell SCF:
 Using DIIS extrapolation, IDIIS=  1040.
 NGot=   524288000 LenX=   105970886 LenY=   105912845
 Requested convergence on RMS density matrix=1.00D-08 within 128 cycles.
 Requested convergence on MAX density matrix=1.00D-06.
 Requested convergence on             energy=1.00D-06.
 No special actions if energy rises.

 Cycle   1  Pass 1  IDiag  1:
 E= -388.532781442964    
 DIIS: error= 5.02D-02 at cycle   1 NSaved=   1.
 NSaved= 1 IEnMin= 1 EnMin= -388.532781442964     IErMin= 1 ErrMin= 5.02D-02
 ErrMax= 5.02D-02  0.00D+00 EMaxC= 1.00D-01 BMatC= 8.07D-01 BMatP= 8.07D-01
 IDIUse=3 WtCom= 4.98D-01 WtEn= 5.02D-01
 Coeff-Com:  0.100D+01
 Coeff-En:   0.100D+01
 Coeff:      0.100D+01
 Gap=     0.508 Goal=   None    Shift=    0.000
 GapD=    0.508 DampG=2.000 DampE=0.500 DampFc=1.0000 IDamp=-1.
 RMSDP=3.99D-03 MaxDP=1.15D-01              OVMax= 1.39D-01

 Cycle   2  Pass 1  IDiag  1:
 E= -389.074234917780     Delta-E=       -0.541453474816 Rises=F Damp=F
 DIIS: error= 1.47D-02 at cycle   2 NSaved=   2.
 NSaved= 2 IEnMin= 2 EnMin= -389.074234917780     IErMin= 2 ErrMin= 1.47D-02
 ErrMax= 1.47D-02  0.00D+00 EMaxC= 1.00D-01 BMatC= 8.64D-02 BMatP= 8.07D-01
 IDIUse=3 WtCom= 8.53D-01 WtEn= 1.47D-01
 Coeff-Com:  0.183D+00 0.817D+00
 Coeff-En:   0.000D+00 0.100D+01
 Coeff:      0.156D+00 0.844D+00
 Gap=     0.552 Goal=   None    Shift=    0.000
 RMSDP=1.62D-03 MaxDP=3.04D-02 DE=-5.41D-01 OVMax= 4.55D-02

 Cycle   3  Pass 1  IDiag  1:
 E= -389.151654324417     Delta-E=       -0.077419406636 Rises=F Damp=F
 DIIS: error= 2.67D-03 at cycle   3 NSaved=   3.
 NSaved= 3 IEnMin= 3 EnMin= -389.151654324417     IErMin= 3 ErrMin= 2.67D-03
 ErrMax= 2.67D-03  0.00D+00 EMaxC= 1.00D-01 BMatC= 3.02D-03 BMatP= 8.64D-02
 IDIUse=3 WtCom= 9.73D-01 WtEn= 2.67D-02
 Coeff-Com: -0.245D-01 0.102D+00 0.922D+00
 Coeff-En:   0.000D+00 0.000D+00 0.100D+01
 Coeff:     -0.239D-01 0.997D-01 0.924D+00
 Gap=     0.499 Goal=   None    Shift=    0.000
 RMSDP=2.54D-04 MaxDP=6.76D-03 DE=-7.74D-02 OVMax= 9.70D-03

 Cycle   4  Pass 1  IDiag  1:
 E= -389.155149793952     Delta-E=       -0.003495469536 Rises=F Damp=F
 DIIS: error= 4.95D-04 at cycle   4 NSaved=   4.
 NSaved= 4 IEnMin= 4 EnMin= -389.155149793952     IErMin= 4 ErrMin= 4.95D-04
 ErrMax= 4.95D-04  0.00D+00 EMaxC= 1.00D-01 BMatC= 9.58D-05 BMatP= 3.02D-03
 IDIUse=3 WtCom= 9.95D-01 WtEn= 4.95D-03
 Coeff-Com: -0.442D-02-0.834D-03 0.102D+00 0.903D+00
 Coeff-En:   0.000D+00 0.000D+00 0.000D+00 0.100D+01
 Coeff:     -0.440D-02-0.829D-03 0.102D+00 0.903D+00
 Gap=     0.500 Goal=   None    Shift=    0.000
 RMSDP=7.33D-05 MaxDP=1.75D-03 DE=-3.50D-03 OVMax= 3.51D-03

 Cycle   5  Pass 1  IDiag  1:
 E= -389.155275023983     Delta-E=       -0.000125230031 Rises=F Damp=F
 DIIS: error= 1.72D-04 at cycle   5 NSaved=   5.
 NSaved= 5 IEnMin= 5 EnMin= -389.155275023983     IErMin= 5 ErrMin= 1.72D-04
 ErrMax= 1.72D-04  0.00D+00 EMaxC= 1.00D-01 BMatC= 1.79D-05 BMatP= 9.58D-05
 IDIUse=3 WtCom= 9.98D-01 WtEn= 1.72D-03
 Coeff-Com:  0.248D-02-0.154D-01-0.106D+00 0.196D+00 0.922D+00
 Coeff-En:   0.000D+00 0.000D+00 0.000D+00 0.000D+00 0.100D+01
 Coeff:      0.247D-02-0.153D-01-0.105D+00 0.196D+00 0.923D+00
 Gap=     0.500 Goal=   None    Shift=    0.000
 RMSDP=3.09D-05 MaxDP=7.46D-04 DE=-1.25D-04 OVMax= 1.02D-03

 Cycle   6  Pass 1  IDiag  1:
 E= -389.155298640800     Delta-E=       -0.000023616817 Rises=F Damp=F
 DIIS: error= 3.73D-05 at cycle   6 NSaved=   6.
 NSaved= 6 IEnMin= 6 EnMin= -389.155298640800     IErMin= 6 ErrMin= 3.73D-05
 ErrMax= 3.73D-05  0.00D+00 EMaxC= 1.00D-01 BMatC= 5.50D-07 BMatP= 1.79D-05
 IDIUse=1 WtCom= 1.00D+00 WtEn= 0.00D+00
 Coeff-Com:  0.724D-03-0.330D-02-0.263D-01-0.272D-02 0.163D+00 0.868D+00
 Coeff:      0.724D-03-0.330D-02-0.263D-01-0.272D-02 0.163D+00 0.868D+00
 Gap=     0.500 Goal=   None    Shift=    0.000
 RMSDP=5.42D-06 MaxDP=1.67D-04 DE=-2.36D-05 OVMax= 3.13D-04

 Cycle   7  Pass 1  IDiag  1:
 E= -389.155299494203     Delta-E=       -0.000000853403 Rises=F Damp=F
 DIIS: error= 9.12D-06 at cycle   7 NSaved=   7.
 NSaved= 7 IEnMin= 7 EnMin= -389.155299494203     IErMin= 7 ErrMin= 9.12D-06
 ErrMax= 9.12D-06  0.00D+00 EMaxC= 1.00D-01 BMatC= 4.91D-08 BMatP= 5.50D-07
 IDIUse=1 WtCom= 1.00D+00 WtEn= 0.00D+00
 Coeff-Com: -0.555D-04 0.478D-03 0.325D-02-0.106D-01-0.462D-01 0.126D+00
 Coeff-Com:  0.927D+00
 Coeff:     -0.555D-04 0.478D-03 0.325D-02-0.106D-01-0.462D-01 0.126D+00
 Coeff:      0.927D+00
 Gap=     0.500 Goal=   None    Shift=    0.000
 RMSDP=1.70D-06 MaxDP=4.71D-05 DE=-8.53D-07 OVMax= 8.67D-05

 Cycle   8  Pass 1  IDiag  1:
 E= -389.155299579333     Delta-E=       -0.000000085130 Rises=F Damp=F
 DIIS: error= 2.98D-06 at cycle   8 NSaved=   8.
 NSaved= 8 IEnMin= 8 EnMin= -389.155299579333     IErMin= 8 ErrMin= 2.98D-06
 ErrMax= 2.98D-06  0.00D+00 EMaxC= 1.00D-01 BMatC= 4.91D-09 BMatP= 4.91D-08
 IDIUse=1 WtCom= 1.00D+00 WtEn= 0.00D+00
 Coeff-Com: -0.553D-04 0.226D-03 0.195D-02 0.331D-02-0.143D-01-0.848D-01
 Coeff-Com: -0.129D+00 0.122D+01
 Coeff:     -0.553D-04 0.226D-03 0.195D-02 0.331D-02-0.143D-01-0.848D-01
 Coeff:     -0.129D+00 0.122D+01
 Gap=     0.500 Goal=   None    Shift=    0.000
 RMSDP=7.76D-07 MaxDP=2.58D-05 DE=-8.51D-08 OVMax= 5.60D-05

 Cycle   9  Pass 1  IDiag  1:
 E= -389.155299594630     Delta-E=       -0.000000015297 Rises=F Damp=F
 DIIS: error= 1.35D-06 at cycle   9 NSaved=   9.
 NSaved= 9 IEnMin= 9 EnMin= -389.155299594630     IErMin= 9 ErrMin= 1.35D-06
 ErrMax= 1.35D-06  0.00D+00 EMaxC= 1.00D-01 BMatC= 6.52D-10 BMatP= 4.91D-09
 IDIUse=1 WtCom= 1.00D+00 WtEn= 0.00D+00
 Coeff-Com:  0.122D-04-0.777D-04-0.580D-03 0.123D-02 0.420D-02 0.524D-02
 Coeff-Com: -0.723D-01-0.197D+00 0.126D+01
 Coeff:      0.122D-04-0.777D-04-0.580D-03 0.123D-02 0.420D-02 0.524D-02
 Coeff:     -0.723D-01-0.197D+00 0.126D+01
 Gap=     0.500 Goal=   None    Shift=    0.000
 RMSDP=2.99D-07 MaxDP=1.28D-05 DE=-1.53D-08 OVMax= 2.62D-05

 Cycle  10  Pass 1  IDiag  1:
 E= -389.155299596840     Delta-E=       -0.000000002210 Rises=F Damp=F
 DIIS: error= 4.11D-07 at cycle  10 NSaved=  10.
 NSaved=10 IEnMin=10 EnMin= -389.155299596840     IErMin=10 ErrMin= 4.11D-07
 ErrMax= 4.11D-07  0.00D+00 EMaxC= 1.00D-01 BMatC= 8.48D-11 BMatP= 6.52D-10
 IDIUse=1 WtCom= 1.00D+00 WtEn= 0.00D+00
 Coeff-Com:  0.802D-05-0.368D-04-0.304D-03-0.200D-03 0.163D-02 0.134D-01
 Coeff-Com:  0.123D-01-0.192D+00 0.976D-01 0.107D+01
 Coeff:      0.802D-05-0.368D-04-0.304D-03-0.200D-03 0.163D-02 0.134D-01
 Coeff:      0.123D-01-0.192D+00 0.976D-01 0.107D+01
 Gap=     0.500 Goal=   None    Shift=    0.000
 RMSDP=1.08D-07 MaxDP=3.31D-06 DE=-2.21D-09 OVMax= 8.53D-06

 Cycle  11  Pass 1  IDiag  1:
 E= -389.155299597086     Delta-E=       -0.000000000246 Rises=F Damp=F
 DIIS: error= 1.55D-07 at cycle  11 NSaved=  11.
 NSaved=11 IEnMin=11 EnMin= -389.155299597086     IErMin=11 ErrMin= 1.55D-07
 ErrMax= 1.55D-07  0.00D+00 EMaxC= 1.00D-01 BMatC= 5.88D-12 BMatP= 8.48D-11
 IDIUse=1 WtCom= 1.00D+00 WtEn= 0.00D+00
 Coeff-Com: -0.513D-06 0.461D-05 0.339D-04-0.107D-03-0.457D-03 0.976D-03
 Coeff-Com:  0.872D-02 0.505D-02-0.108D+00 0.921D-01 0.100D+01
 Coeff:     -0.513D-06 0.461D-05 0.339D-04-0.107D-03-0.457D-03 0.976D-03
 Coeff:      0.872D-02 0.505D-02-0.108D+00 0.921D-01 0.100D+01
 Gap=     0.500 Goal=   None    Shift=    0.000
 RMSDP=2.30D-08 MaxDP=1.01D-06 DE=-2.46D-10 OVMax= 2.03D-06

 Cycle  12  Pass 1  IDiag  1:
 E= -389.155299597088     Delta-E=       -0.000000000002 Rises=F Damp=F
 DIIS: error= 4.41D-08 at cycle  12 NSaved=  12.
 NSaved=12 IEnMin=12 EnMin= -389.155299597088     IErMin=12 ErrMin= 4.41D-08
 ErrMax= 4.41D-08  0.00D+00 EMaxC= 1.00D-01 BMatC= 9.43D-13 BMatP= 5.88D-12
 IDIUse=1 WtCom= 1.00D+00 WtEn= 0.00D+00
 Coeff-Com: -0.945D-06 0.495D-05 0.398D-04 0.176D-05-0.291D-03-0.124D-02
 Coeff-Com:  0.337D-03 0.206D-01-0.365D-01-0.106D+00 0.192D+00 0.931D+00
 Coeff:     -0.945D-06 0.495D-05 0.398D-04 0.176D-05-0.291D-03-0.124D-02
 Coeff:      0.337D-03 0.206D-01-0.365D-01-0.106D+00 0.192D+00 0.931D+00
 Gap=     0.500 Goal=   None    Shift=    0.000
 RMSDP=9.73D-09 MaxDP=2.60D-07 DE=-1.82D-12 OVMax= 6.37D-07

 SCF Done:  E(RHF) =  -389.155299597     A.U. after   12 cycles
            NFock= 12  Conv=0.97D-08     -V/T= 2.0014
 KE= 3.886243952063D+02 PE=-1.931191776525D+03 EE= 6.401333070687D+02
 Leave Link  502 at Fri Sep 17 16:12:38 2021, MaxMem=   524288000 cpu:              29.7 elap:              30.5
 (Enter /opt/gaussian/g16_legacy/l801.exe)
 ExpMin= 1.61D-01 ExpMax= 3.05D+03 ExpMxC= 4.57D+02 IAcc=3 IRadAn=         5 AccDes= 0.00D+00
 HarFok:  IExCor=  205 AccDes= 0.00D+00 IRadAn=         5 IDoV=-2 UseB2=F ITyADJ=14
 ICtDFT= 12500011 ScaDFX=  1.000000  1.000000  1.000000  1.000000
 Largest valence mixing into a core orbital is  1.97D-04
 Largest core mixing into a valence orbital is  3.52D-05
 Range of M.O.s used for correlation:    11   240
 NBasis=   240 NAE=    39 NBE=    39 NFC=    10 NFV=     0
 NROrb=    230 NOA=    29 NOB=    29 NVA=   201 NVB=   201
 Leave Link  801 at Fri Sep 17 16:12:39 2021, MaxMem=   524288000 cpu:               1.6 elap:               1.7
 (Enter /opt/gaussian/g16_legacy/l906.exe)
 Frozen-core derivative calculation, NFC=  10 NFV=   0.
 FulOut=F Deriv=T AODrv=T NAtomX=    28
   MMem=          89  MDisk=          29 MDiskD=          29
  W3Min=     2246400 MinDsk=     2795480 NBas6D=         240
 NBas2D=       29244    NTT=       28920    LW2=     2040000
    MDV=   523629461 MDiskM=       30186 NBas2p=       24099
 Fully direct method using O(ONN) memory.
 IMap=   1   2   3   4   5   6   7   8   9  10  11  12  13  14  15  16  17  18  19  20
 IMap=  21  22  23  24  25  26  27  28  29  30  31  32  33  34  35  36  37  38  39
 JobTyp=1 Pass  1:  I=  11 to  39 NPSUse=  1 ParTrn=F ParDer=F DoDerP=T.
 Spin components of T(2) and E(2):
     alpha-alpha T2 =       0.5711545026D-01 E2=     -0.1637343606D+00
     alpha-beta  T2 =       0.3617439475D+00 E2=     -0.1089192333D+01
     beta-beta   T2 =       0.5711545026D-01 E2=     -0.1637343606D+00
 The integrals were generated   1 times.
 ANorm=    0.1214897052D+01
 E2 =    -0.1416661054D+01 EUMP2 =    -0.39057196065149D+03
 Leave Link  906 at Fri Sep 17 16:16:44 2021, MaxMem=   524288000 cpu:             244.8 elap:             244.8
 (Enter /opt/gaussian/g16_legacy/l1002.exe)
 Minotr:  Closed shell wavefunction.
          Computing MP2/KS-MP2 derivatives.
          Using Z-Vector for PSCF gradient.
          Skipping F1 and S1 gradient terms here.
          IDoAtm=1111111111111111111111111111
          Frozen-core window.
          Direct CPHF calculation.
          Differentiating once with respect to electric field.
                with respect to dipole field.
          Differentiating once with respect to nuclear coordinates.
          Requested convergence is 1.0D-10 RMS, and 1.0D-09 maximum.
          NewPWx=F KeepS1=T KeepF1=T KeepIn=T MapXYZ=F SortEE=F KeepMc=T.
 Keep R1 ints in memory in canonical form, NReq=425201067.
 FoFCou: FMM=F IPFlag=           0 FMFlag=           0 FMFlg1=           0
         NFxFlg=           0 DoJE=F BraDBF=F KetDBF=F FulRan=T
         wScrn=  0.000000 ICntrl=       600 IOpCl=  0 I1Cent=           0 NGrid=           0
         NMat0=    1 NMatS0=  28920 NMatT0=    0 NMatD0=    1 NMtDS0=    0 NMtDT0=    0
 Symmetry not used in FoFCou.
 Two-electron integral symmetry not used.
          MDV=     524288000 using IRadAn=       5.
          Solving linear equations separately, MaxMat=       0.
          There are     1 degrees of freedom in the 1st order CPHF.  IDoFFX=0 NUNeed=     1.
 LinEq1:  Iter=  0 NonCon=     1 RMS=2.55D-03 Max=4.26D-02 NDo=     1
 AX will form     1 AO Fock derivatives at one time.
 LinEq1:  Iter=  1 NonCon=     1 RMS=6.89D-04 Max=1.12D-02 NDo=     1
 LinEq1:  Iter=  2 NonCon=     1 RMS=1.61D-04 Max=4.12D-03 NDo=     1
 LinEq1:  Iter=  3 NonCon=     1 RMS=4.42D-05 Max=5.11D-04 NDo=     1
 LinEq1:  Iter=  4 NonCon=     1 RMS=1.99D-05 Max=8.26D-04 NDo=     1
 LinEq1:  Iter=  5 NonCon=     1 RMS=4.81D-06 Max=8.80D-05 NDo=     1
 LinEq1:  Iter=  6 NonCon=     1 RMS=1.45D-06 Max=2.33D-05 NDo=     1
 LinEq1:  Iter=  7 NonCon=     1 RMS=4.00D-07 Max=4.12D-06 NDo=     1
 LinEq1:  Iter=  8 NonCon=     1 RMS=8.44D-08 Max=1.47D-06 NDo=     1
 LinEq1:  Iter=  9 NonCon=     1 RMS=2.21D-08 Max=5.47D-07 NDo=     1
 LinEq1:  Iter= 10 NonCon=     1 RMS=7.37D-09 Max=1.94D-07 NDo=     1
 LinEq1:  Iter= 11 NonCon=     1 RMS=2.35D-09 Max=7.27D-08 NDo=     1
 LinEq1:  Iter= 12 NonCon=     1 RMS=8.55D-10 Max=1.38D-08 NDo=     1
 LinEq1:  Iter= 13 NonCon=     1 RMS=2.39D-10 Max=3.46D-09 NDo=     1
 LinEq1:  Iter= 14 NonCon=     0 RMS=5.52D-11 Max=6.92D-10 NDo=     1
 Linear equations converged to 1.000D-10 1.000D-09 after    14 iterations.
 End of Minotr F.D. properties file   721 does not exist.
 End of Minotr F.D. properties file   722 does not exist.
 End of Minotr F.D. properties file   788 does not exist.
 Leave Link 1002 at Fri Sep 17 16:17:19 2021, MaxMem=   524288000 cpu:              34.7 elap:              34.7
 (Enter /opt/gaussian/g16_legacy/l601.exe)
 Copying SCF densities to generalized density rwf, IOpCl= 0 IROHF=0.

 **********************************************************************

            Population analysis using the SCF density.

 **********************************************************************

 Orbital symmetries:
       Occupied  (A) (A) (A) (A) (A) (A) (A) (A) (A) (A) (A) (A)
                 (A) (A) (A) (A) (A) (A) (A) (A) (A) (A) (A) (A)
                 (A) (A) (A) (A) (A) (A) (A) (A) (A) (A) (A) (A)
                 (A) (A) (A)
       Virtual   (A) (A) (A) (A) (A) (A) (A) (A) (A) (A) (A) (A)
                 (A) (A) (A) (A) (A) (A) (A) (A) (A) (A) (A) (A)
                 (A) (A) (A) (A) (A) (A) (A) (A) (A) (A) (A) (A)
                 (A) (A) (A) (A) (A) (A) (A) (A) (A) (A) (A) (A)
                 (A) (A) (A) (A) (A) (A) (A) (A) (A) (A) (A) (A)
                 (A) (A) (A) (A) (A) (A) (A) (A) (A) (A) (A) (A)
                 (A) (A) (A) (A) (A) (A) (A) (A) (A) (A) (A) (A)
                 (A) (A) (A) (A) (A) (A) (A) (A) (A) (A) (A) (A)
                 (A) (A) (A) (A) (A) (A) (A) (A) (A) (A) (A) (A)
                 (A) (A) (A) (A) (A) (A) (A) (A) (A) (A) (A) (A)
                 (A) (A) (A) (A) (A) (A) (A) (A) (A) (A) (A) (A)
                 (A) (A) (A) (A) (A) (A) (A) (A) (A) (A) (A) (A)
                 (A) (A) (A) (A) (A) (A) (A) (A) (A) (A) (A) (A)
                 (A) (A) (A) (A) (A) (A) (A) (A) (A) (A) (A) (A)
                 (A) (A) (A) (A) (A) (A) (A) (A) (A) (A) (A) (A)
                 (A) (A) (A) (A) (A) (A) (A) (A) (A) (A) (A) (A)
                 (A) (A) (A) (A) (A) (A) (A) (A) (A)
 The electronic state is 1-A.
 Alpha  occ. eigenvalues --  -11.23059 -11.22491 -11.21994 -11.21919 -11.21893
 Alpha  occ. eigenvalues --  -11.21651 -11.21538 -11.21500 -11.21456 -11.21436
 Alpha  occ. eigenvalues --   -1.10615  -1.08328  -1.01892  -0.98024  -0.93647
 Alpha  occ. eigenvalues --   -0.91774  -0.86739  -0.82690  -0.70608  -0.69412
 Alpha  occ. eigenvalues --   -0.64402  -0.61335  -0.60398  -0.59006  -0.58078
 Alpha  occ. eigenvalues --   -0.56879  -0.55470  -0.55041  -0.53550  -0.51977
 Alpha  occ. eigenvalues --   -0.51779  -0.51260  -0.50451  -0.49765  -0.47237
 Alpha  occ. eigenvalues --   -0.46643  -0.44233  -0.33255  -0.31613
 Alpha virt. eigenvalues --    0.18419   0.19608   0.22268   0.24508   0.24867
 Alpha virt. eigenvalues --    0.27279   0.28581   0.29021   0.30342   0.30570
 Alpha virt. eigenvalues --    0.31453   0.32295   0.32993   0.33605   0.33918
 Alpha virt. eigenvalues --    0.34861   0.36107   0.37175   0.38359   0.39994
 Alpha virt. eigenvalues --    0.40807   0.41938   0.42662   0.44320   0.45311
 Alpha virt. eigenvalues --    0.51884   0.54070   0.61043   0.62388   0.69420
 Alpha virt. eigenvalues --    0.71419   0.71712   0.74323   0.75992   0.76601
 Alpha virt. eigenvalues --    0.77889   0.78836   0.80149   0.80438   0.82527
 Alpha virt. eigenvalues --    0.82864   0.85807   0.89228   0.90311   0.92128
 Alpha virt. eigenvalues --    0.93066   0.94945   0.96557   0.97591   0.99409
 Alpha virt. eigenvalues --    0.99665   1.01112   1.02714   1.04774   1.06344
 Alpha virt. eigenvalues --    1.07245   1.08350   1.08464   1.10883   1.12200
 Alpha virt. eigenvalues --    1.13083   1.13494   1.14141   1.15109   1.15426
 Alpha virt. eigenvalues --    1.15971   1.16403   1.17988   1.18282   1.20092
 Alpha virt. eigenvalues --    1.20925   1.22026   1.22904   1.24888   1.26884
 Alpha virt. eigenvalues --    1.29778   1.39911   1.40851   1.44074   1.45169
 Alpha virt. eigenvalues --    1.46114   1.53926   1.55258   1.57488   1.59005
 Alpha virt. eigenvalues --    1.61321   1.62900   1.65441   1.68692   1.70718
 Alpha virt. eigenvalues --    1.74993   1.83305   1.90945   1.92638   1.95887
 Alpha virt. eigenvalues --    1.98117   2.01342   2.02512   2.04963   2.08418
 Alpha virt. eigenvalues --    2.09280   2.11239   2.11878   2.13547   2.13758
 Alpha virt. eigenvalues --    2.15742   2.17933   2.19182   2.23538   2.27677
 Alpha virt. eigenvalues --    2.27930   2.30155   2.32120   2.34935   2.35557
 Alpha virt. eigenvalues --    2.35637   2.35786   2.39412   2.39792   2.40224
 Alpha virt. eigenvalues --    2.41251   2.41847   2.42900   2.44989   2.45575
 Alpha virt. eigenvalues --    2.47184   2.49012   2.49666   2.49766   2.53203
 Alpha virt. eigenvalues --    2.56183   2.58405   2.60483   2.62610   2.64594
 Alpha virt. eigenvalues --    2.66045   2.67902   2.71569   2.72559   2.74074
 Alpha virt. eigenvalues --    2.76096   2.77695   2.81001   2.82551   2.84078
 Alpha virt. eigenvalues --    2.86959   2.90348   2.92350   2.93719   2.93881
 Alpha virt. eigenvalues --    2.97256   2.98945   3.00894   3.02345   3.04615
 Alpha virt. eigenvalues --    3.06568   3.07047   3.09532   3.11566   3.16233
 Alpha virt. eigenvalues --    3.17174   3.17504   3.19750   3.20508   3.20973
 Alpha virt. eigenvalues --    3.22293   3.25236   3.26473   3.27442   3.37026
 Alpha virt. eigenvalues --    3.39004   3.44379   3.45749   3.55478   3.57313
 Alpha virt. eigenvalues --    3.58495   3.60435   3.67986   3.73338   3.78350
 Alpha virt. eigenvalues --    3.78758   3.80291   3.81205   3.82235   3.82859
 Alpha virt. eigenvalues --    3.83540   3.85732   3.87951   3.89121   3.90862
 Alpha virt. eigenvalues --    3.96058   4.59176   4.62295   4.74494   4.82466
 Alpha virt. eigenvalues --    4.89198   4.92414   4.93233   5.07346   5.10306
 Alpha virt. eigenvalues --    5.16933
          Condensed to atoms (all electrons):
               1          2          3          4          5          6
     1  C    5.000744   0.414390   0.412400   0.339580  -0.058815   0.003652
     2  H    0.414390   0.576712  -0.030322  -0.040663   0.003304  -0.000107
     3  H    0.412400  -0.030322   0.583785  -0.045119  -0.004632   0.000093
     4  C    0.339580  -0.040663  -0.045119   4.957285   0.350742  -0.041419
     5  C   -0.058815   0.003304  -0.004632   0.350742   4.895140   0.406590
     6  H    0.003652  -0.000107   0.000093  -0.041419   0.406590   0.570216
     7  H   -0.000424  -0.000036  -0.000305  -0.046049   0.399656  -0.028121
     8  H   -0.003455  -0.000014   0.002508  -0.043202   0.397605  -0.027582
     9  C   -0.043517  -0.002304   0.001833   0.696643  -0.045817  -0.002763
    10  H    0.003082   0.000055  -0.000112  -0.036448  -0.006441   0.002176
    11  C   -0.007011  -0.002042   0.000131  -0.050639   0.003399   0.000140
    12  H    0.000233  -0.000035  -0.000010   0.000512  -0.000102  -0.000008
    13  H    0.000216   0.000157   0.000029  -0.001299  -0.000114  -0.000004
    14  H   -0.002040  -0.001244   0.000011  -0.000449   0.000090   0.000004
    15  C    0.000487  -0.000011   0.000129  -0.000018  -0.000017   0.000000
    16  H    0.000071  -0.000000  -0.000066  -0.000002   0.000000  -0.000000
    17  H   -0.000041   0.000000   0.000012   0.000001  -0.000000   0.000000
    18  H    0.000080  -0.000011   0.000148  -0.000063   0.000095  -0.000001
    19  C   -0.002759   0.000602   0.000934  -0.000035   0.000007  -0.000000
    20  C   -0.000105  -0.000001  -0.000032   0.000001  -0.000000   0.000000
    21  H   -0.000002   0.000002  -0.000002   0.000000  -0.000000  -0.000000
    22  H   -0.000004   0.000000   0.000001   0.000000  -0.000000   0.000000
    23  H    0.000021  -0.000001  -0.000005  -0.000000   0.000000  -0.000000
    24  C   -0.062583  -0.001371  -0.000487   0.006102  -0.000075   0.000002
    25  H   -0.000349   0.001132   0.000185  -0.000118  -0.000002   0.000000
    26  C    0.325382  -0.041393  -0.042901  -0.056891  -0.000803  -0.000094
    27  H   -0.040033   0.004047  -0.002359  -0.002268  -0.000487  -0.000024
    28  H   -0.045281  -0.002680   0.004395  -0.001368   0.000304  -0.000006
               7          8          9         10         11         12
     1  C   -0.000424  -0.003455  -0.043517   0.003082  -0.007011   0.000233
     2  H   -0.000036  -0.000014  -0.002304   0.000055  -0.002042  -0.000035
     3  H   -0.000305   0.002508   0.001833  -0.000112   0.000131  -0.000010
     4  C   -0.046049  -0.043202   0.696643  -0.036448  -0.050639   0.000512
     5  C    0.399656   0.397605  -0.045817  -0.006441   0.003399  -0.000102
     6  H   -0.028121  -0.027582  -0.002763   0.002176   0.000140  -0.000008
     7  H    0.598067  -0.035161  -0.000963   0.000130  -0.000102   0.000015
     8  H   -0.035161   0.593329  -0.000479   0.000245  -0.000113  -0.000004
     9  C   -0.000963  -0.000479   4.940002   0.404565   0.338342  -0.042710
    10  H    0.000130   0.000245   0.404565   0.559878  -0.043635  -0.002623
    11  C   -0.000102  -0.000113   0.338342  -0.043635   4.903485   0.402924
    12  H    0.000015  -0.000004  -0.042710  -0.002623   0.402924   0.585789
    13  H   -0.000005   0.000021  -0.044528  -0.000244   0.400271  -0.033306
    14  H    0.000001  -0.000001  -0.041996   0.003344   0.408021  -0.029455
    15  C   -0.000029  -0.000002  -0.000000  -0.000000  -0.000000  -0.000000
    16  H   -0.000001   0.000000   0.000000  -0.000000   0.000000   0.000000
    17  H   -0.000000   0.000000   0.000000   0.000000   0.000000  -0.000000
    18  H    0.000222   0.000005  -0.000001   0.000000  -0.000000   0.000000
    19  C    0.000017  -0.000001  -0.000002   0.000000   0.000000   0.000000
    20  C   -0.000000   0.000000  -0.000000   0.000000   0.000000  -0.000000
    21  H   -0.000000  -0.000000   0.000000   0.000000  -0.000000   0.000000
    22  H    0.000000  -0.000000  -0.000000   0.000000  -0.000000  -0.000000
    23  H    0.000000  -0.000000   0.000000  -0.000000  -0.000000   0.000000
    24  C   -0.000082   0.000000  -0.000010   0.000002  -0.000022  -0.000002
    25  H   -0.000000   0.000000   0.000009  -0.000000  -0.000002  -0.000000
    26  C    0.000832   0.000024  -0.003334  -0.000120   0.000493   0.000079
    27  H   -0.000581   0.000076   0.000498   0.000002  -0.000024   0.000000
    28  H    0.000016   0.000006   0.000946  -0.000032   0.000106  -0.000059
              13         14         15         16         17         18
     1  C    0.000216  -0.002040   0.000487   0.000071  -0.000041   0.000080
     2  H    0.000157  -0.001244  -0.000011  -0.000000   0.000000  -0.000011
     3  H    0.000029   0.000011   0.000129  -0.000066   0.000012   0.000148
     4  C   -0.001299  -0.000449  -0.000018  -0.000002   0.000001  -0.000063
     5  C   -0.000114   0.000090  -0.000017   0.000000  -0.000000   0.000095
     6  H   -0.000004   0.000004   0.000000  -0.000000   0.000000  -0.000001
     7  H   -0.000005   0.000001  -0.000029  -0.000001  -0.000000   0.000222
     8  H    0.000021  -0.000001  -0.000002   0.000000   0.000000   0.000005
     9  C   -0.044528  -0.041996  -0.000000   0.000000   0.000000  -0.000001
    10  H   -0.000244   0.003344  -0.000000  -0.000000   0.000000   0.000000
    11  C    0.400271   0.408021  -0.000000   0.000000   0.000000  -0.000000
    12  H   -0.033306  -0.029455  -0.000000   0.000000  -0.000000   0.000000
    13  H    0.585275  -0.027468   0.000000  -0.000000   0.000000  -0.000000
    14  H   -0.027468   0.575243   0.000000  -0.000000   0.000000   0.000000
    15  C    0.000000   0.000000   4.906843   0.402437   0.398571   0.405952
    16  H   -0.000000  -0.000000   0.402437   0.585568  -0.033096  -0.029646
    17  H    0.000000   0.000000   0.398571  -0.033096   0.583088  -0.026871
    18  H   -0.000000   0.000000   0.405952  -0.029646  -0.026871   0.570709
    19  C   -0.000000   0.000001   0.348923  -0.043834  -0.043927  -0.036970
    20  C    0.000000  -0.000000  -0.065372  -0.003426  -0.001680   0.003707
    21  H   -0.000000   0.000000   0.003697   0.000012  -0.000080  -0.000109
    22  H    0.000000   0.000000  -0.001091  -0.000508   0.002543  -0.000024
    23  H   -0.000000  -0.000000  -0.002145   0.002838  -0.000367  -0.000073
    24  C    0.000002   0.000034  -0.043607   0.000408  -0.000744  -0.002890
    25  H   -0.000000   0.000035   0.003359  -0.000112  -0.000124   0.000053
    26  C   -0.000045  -0.000174  -0.007184   0.000276   0.000191  -0.002348
    27  H   -0.000000  -0.000005  -0.001879  -0.000035   0.000040  -0.001473
    28  H    0.000018   0.000114   0.000145  -0.000012   0.000033   0.000041
              19         20         21         22         23         24
     1  C   -0.002759  -0.000105  -0.000002  -0.000004   0.000021  -0.062583
     2  H    0.000602  -0.000001   0.000002   0.000000  -0.000001  -0.001371
     3  H    0.000934  -0.000032  -0.000002   0.000001  -0.000005  -0.000487
     4  C   -0.000035   0.000001   0.000000   0.000000  -0.000000   0.006102
     5  C    0.000007  -0.000000  -0.000000  -0.000000   0.000000  -0.000075
     6  H   -0.000000   0.000000  -0.000000   0.000000  -0.000000   0.000002
     7  H    0.000017  -0.000000  -0.000000   0.000000   0.000000  -0.000082
     8  H   -0.000001   0.000000  -0.000000  -0.000000  -0.000000   0.000000
     9  C   -0.000002  -0.000000   0.000000  -0.000000   0.000000  -0.000010
    10  H    0.000000   0.000000   0.000000   0.000000  -0.000000   0.000002
    11  C    0.000000   0.000000  -0.000000  -0.000000  -0.000000  -0.000022
    12  H    0.000000  -0.000000   0.000000  -0.000000   0.000000  -0.000002
    13  H   -0.000000   0.000000  -0.000000   0.000000  -0.000000   0.000002
    14  H    0.000001  -0.000000   0.000000   0.000000  -0.000000   0.000034
    15  C    0.348923  -0.065372   0.003697  -0.001091  -0.002145  -0.043607
    16  H   -0.043834  -0.003426   0.000012  -0.000508   0.002838   0.000408
    17  H   -0.043927  -0.001680  -0.000080   0.002543  -0.000367  -0.000744
    18  H   -0.036970   0.003707  -0.000109  -0.000024  -0.000073  -0.002890
    19  C    4.920173   0.351810  -0.040403  -0.045806  -0.044200   0.695496
    20  C    0.351810   4.903471   0.405372   0.399266   0.396985  -0.044525
    21  H   -0.040403   0.405372   0.568058  -0.027571  -0.027346  -0.002345
    22  H   -0.045806   0.399266  -0.027571   0.593127  -0.034898  -0.001113
    23  H   -0.044200   0.396985  -0.027346  -0.034898   0.594253  -0.000621
    24  C    0.695496  -0.044525  -0.002345  -0.001113  -0.000621   4.962300
    25  H   -0.035970  -0.006707   0.002203   0.000153   0.000223   0.402998
    26  C   -0.048869   0.003141   0.000141  -0.000123  -0.000086   0.341682
    27  H    0.000558   0.000062   0.000006   0.000004  -0.000003  -0.043143
    28  H    0.000973  -0.000098  -0.000011   0.000012  -0.000002  -0.044015
              25         26         27         28
     1  C   -0.000349   0.325382  -0.040033  -0.045281
     2  H    0.001132  -0.041393   0.004047  -0.002680
     3  H    0.000185  -0.042901  -0.002359   0.004395
     4  C   -0.000118  -0.056891  -0.002268  -0.001368
     5  C   -0.000002  -0.000803  -0.000487   0.000304
     6  H    0.000000  -0.000094  -0.000024  -0.000006
     7  H   -0.000000   0.000832  -0.000581   0.000016
     8  H    0.000000   0.000024   0.000076   0.000006
     9  C    0.000009  -0.003334   0.000498   0.000946
    10  H   -0.000000  -0.000120   0.000002  -0.000032
    11  C   -0.000002   0.000493  -0.000024   0.000106
    12  H   -0.000000   0.000079   0.000000  -0.000059
    13  H   -0.000000  -0.000045  -0.000000   0.000018
    14  H    0.000035  -0.000174  -0.000005   0.000114
    15  C    0.003359  -0.007184  -0.001879   0.000145
    16  H   -0.000112   0.000276  -0.000035  -0.000012
    17  H   -0.000124   0.000191   0.000040   0.000033
    18  H    0.000053  -0.002348  -0.001473   0.000041
    19  C   -0.035970  -0.048869   0.000558   0.000973
    20  C   -0.006707   0.003141   0.000062  -0.000098
    21  H    0.002203   0.000141   0.000006  -0.000011
    22  H    0.000153  -0.000123   0.000004   0.000012
    23  H    0.000223  -0.000086  -0.000003  -0.000002
    24  C    0.402998   0.341682  -0.043143  -0.044015
    25  H    0.558278  -0.041950   0.003304  -0.003531
    26  C   -0.041950   4.978476   0.414993   0.415020
    27  H    0.003304   0.414993   0.579643  -0.029790
    28  H   -0.003531   0.415020  -0.029790   0.581198
 Mulliken charges:
               1
     1  C   -0.233919
     2  H    0.121834
     3  H    0.119759
     4  C    0.015183
     5  C   -0.339626
     6  H    0.117256
     7  H    0.112903
     8  H    0.116193
     9  C   -0.154416
    10  H    0.116174
    11  C   -0.353721
    12  H    0.118764
    13  H    0.121025
    14  H    0.115935
    15  C   -0.349190
    16  H    0.119129
    17  H    0.122450
    18  H    0.119465
    19  C    0.023281
    20  C   -0.341870
    21  H    0.118378
    22  H    0.116032
    23  H    0.115427
    24  C   -0.161391
    25  H    0.116932
    26  C   -0.234417
    27  H    0.118870
    28  H    0.123558
 Sum of Mulliken charges =  -0.00000
 Mulliken charges with hydrogens summed into heavy atoms:
               1
     1  C    0.007674
     4  C    0.015183
     5  C    0.006726
     9  C   -0.038242
    11  C    0.002003
    15  C    0.011854
    19  C    0.023281
    20  C    0.007966
    24  C   -0.044458
    26  C    0.008012
 Electronic spatial extent (au):  <R**2>=           2544.9790
 Charge=              0.0000 electrons
 Dipole moment (field-independent basis, Debye):
    X=             -0.3490    Y=              0.1468    Z=              0.0263  Tot=              0.3795
 Quadrupole moment (field-independent basis, Debye-Ang):
   XX=            -63.8841   YY=            -63.9183   ZZ=            -67.2166
   XY=             -0.9694   XZ=             -0.9084   YZ=             -0.2407
 Traceless Quadrupole moment (field-independent basis, Debye-Ang):
   XX=              1.1223   YY=              1.0880   ZZ=             -2.2103
   XY=             -0.9694   XZ=             -0.9084   YZ=             -0.2407
 Octapole moment (field-independent basis, Debye-Ang**2):
  XXX=             -0.9255  YYY=             -2.8085  ZZZ=              0.8877  XYY=              0.2813
  XXY=              1.7970  XXZ=             -2.7152  XZZ=             -1.8039  YZZ=              1.3750
  YYZ=              0.5295  XYZ=              0.3794
 Hexadecapole moment (field-independent basis, Debye-Ang**3):
 XXXX=          -2708.1675 YYYY=           -641.3428 ZZZZ=           -161.4639 XXXY=             -7.7040
 XXXZ=            -11.8634 YYYX=              8.1691 YYYZ=             -1.4922 ZZZX=             -2.8106
 ZZZY=              1.9637 XXYY=           -565.0346 XXZZ=           -492.0530 YYZZ=           -130.8306
 XXYZ=             -3.0922 YYXZ=             -1.7801 ZZXY=             -8.1565
 N-N= 5.132787746531D+02 E-N=-1.931191775528D+03  KE= 3.886243952063D+02
 No NMR shielding tensors so no spin-rotation constants.
 Leave Link  601 at Fri Sep 17 16:17:19 2021, MaxMem=   524288000 cpu:               0.3 elap:               0.3
 (Enter /opt/gaussian/g16_legacy/l701.exe)
 ... and contract with generalized density number  2.
 Compute integral first derivatives.
 Leave Link  701 at Fri Sep 17 16:17:20 2021, MaxMem=   524288000 cpu:               0.3 elap:               0.3
 (Enter /opt/gaussian/g16_legacy/l702.exe)
 L702 exits ... SP integral derivatives will be done elsewhere.
 Leave Link  702 at Fri Sep 17 16:17:20 2021, MaxMem=   524288000 cpu:               0.1 elap:               0.1
 (Enter /opt/gaussian/g16_legacy/l703.exe)
 Integral derivatives from FoFJK, PRISM(SPDF).
 Compute integral first derivatives, UseDBF=F ICtDFT=           0.
 Calling FoFJK, ICntrl=  10002127 FMM=F ISym2X=0 I1Cent= 0 IOpClX= 0 NMat=1 NMatS=1 NMatT=0.
 FoFJK:  IHMeth= 1 ICntrl=10002127 DoSepK=F KAlg= 0 I1Cent=           0 FoldK=F
 IRaf=         0 NMat=       1 IRICut=       1 DoRegI=T DoRafI=F ISym2E= 0 IDoP0=0 IntGTp=1.
 FoFCou: FMM=F IPFlag=           0 FMFlag=      100000 FMFlg1=         800
         NFxFlg=           0 DoJE=F BraDBF=F KetDBF=F FulRan=T
         wScrn=  0.000000 ICntrl=  10002127 IOpCl=  0 I1Cent=           0 NGrid=           0
         NMat0=    1 NMatS0=      1 NMatT0=    0 NMatD0=    1 NMtDS0=    0 NMtDT0=    0
 Symmetry not used in FoFCou.
 Leave Link  703 at Fri Sep 17 16:17:54 2021, MaxMem=   524288000 cpu:              34.2 elap:              34.2
 (Enter /opt/gaussian/g16_legacy/l716.exe)
 Dipole        =-1.00061894D-01 3.50253522D-02 3.64767770D-03
 ***** Axes restored to original set *****
 -------------------------------------------------------------------
 Center     Atomic                   Forces (Hartrees/Bohr)
 Number     Number              X              Y              Z
 -------------------------------------------------------------------
      1        6          -0.008246726    0.003567231    0.001177963
      2        1           0.000318633   -0.003931581   -0.000406740
      3        1          -0.000222017   -0.003848735   -0.002164238
      4        6          -0.002791259    0.003880707    0.003851878
      5        6          -0.002751608   -0.001039584    0.000555710
      6        1           0.002776034    0.001289011   -0.002786554
      7        1           0.000473464    0.002346448    0.002323147
      8        1           0.001176177   -0.002979424   -0.001057736
      9        6           0.002162656   -0.002922873    0.000147337
     10        1           0.003348784   -0.000419146    0.001096806
     11        6           0.000841066    0.000862241   -0.002569251
     12        1           0.000265081    0.003403840    0.000706424
     13        1           0.000091965   -0.001427161   -0.003082960
     14        1          -0.001912249   -0.000154422    0.002868248
     15        6          -0.003612459   -0.001576286    0.002469344
     16        1           0.000527985   -0.002442196   -0.002723242
     17        1           0.000747586    0.002111475    0.002193537
     18        1           0.001441046    0.000544864   -0.003115308
     19        6          -0.001529315    0.004778110   -0.002364128
     20        6          -0.001058864    0.002122197   -0.002371908
     21        1          -0.000847262   -0.002462554    0.003482521
     22        1           0.000674348    0.002593191    0.002058550
     23        1           0.001446334   -0.002836062   -0.001539238
     24        6          -0.001571567   -0.004716114   -0.001049100
     25        1           0.002689945   -0.000306644    0.002051719
     26        6           0.006619441   -0.002095878   -0.003347851
     27        1           0.000085471    0.003225872    0.000295903
     28        1          -0.001142688    0.002433474    0.003299169
 -------------------------------------------------------------------
 Cartesian Forces:  Max     0.008246726 RMS     0.002536873
 Leave Link  716 at Fri Sep 17 16:17:54 2021, MaxMem=   524288000 cpu:               0.1 elap:               0.1
 (Enter /opt/gaussian/g16_legacy/l103.exe)

 GradGradGradGradGradGradGradGradGradGradGradGradGradGradGradGradGradGrad
 Berny optimization.
 FormGI is forming the generalized inverse of G from B-inverse, IUseBI=4.
 Internal  Forces:  Max     0.004118351 RMS     0.001892275
 Search for a local minimum.
 Step number   1 out of a maximum of  138
 All quantities printed in internal units (Hartrees-Bohrs-Radians)
 RMS Force = .18923D-02 SwitMx=.10000D-02 MixMth= 1
 Mixed Optimization -- RFO/linear search
 Second derivative matrix not updated -- first step.
 ITU=  0
     Eigenvalues ---    0.00342   0.00570   0.00667   0.00679   0.00693
     Eigenvalues ---    0.00716   0.00820   0.01219   0.01287   0.01570
     Eigenvalues ---    0.01642   0.02780   0.02785   0.04014   0.04133
     Eigenvalues ---    0.05350   0.05403   0.06981   0.07039   0.07088
     Eigenvalues ---    0.07092   0.07265   0.07300   0.07348   0.07505
     Eigenvalues ---    0.09279   0.09365   0.12769   0.12846   0.15999
     Eigenvalues ---    0.15999   0.16000   0.16000   0.16000   0.16000
     Eigenvalues ---    0.16000   0.16000   0.16000   0.16000   0.16000
     Eigenvalues ---    0.16000   0.16000   0.16000   0.21860   0.21867
     Eigenvalues ---    0.22000   0.22000   0.24993   0.24996   0.24998
     Eigenvalues ---    0.24999   0.29235   0.30872   0.31604   0.31700
     Eigenvalues ---    0.31806   0.31984   0.32806   0.33866   0.33934
     Eigenvalues ---    0.34067   0.34188   0.34222   0.34228   0.34241
     Eigenvalues ---    0.34246   0.34249   0.34262   0.34264   0.34292
     Eigenvalues ---    0.34292   0.34337   0.34544   0.34552   0.34784
     Eigenvalues ---    0.34844   0.55509   0.55581
 RFO step:  Lambda=-2.86515520D-03 EMin= 3.41984674D-03
 Linear search not attempted -- first point.
 Iteration  1 RMS(Cart)=  0.04041270 RMS(Int)=  0.00070754
 Iteration  2 RMS(Cart)=  0.00101664 RMS(Int)=  0.00015604
 Iteration  3 RMS(Cart)=  0.00000055 RMS(Int)=  0.00015604
 ITry= 1 IFail=0 DXMaxC= 1.31D-01 DCOld= 1.00D+10 DXMaxT= 3.00D-01 DXLimC= 3.00D+00 Rises=F
 Variable       Old X    -DE/DX   Delta X   Delta X   Delta X     New X
                                 (Linear)    (Quad)   (Total)
    R1        2.07217  -0.00292   0.00000  -0.00849  -0.00849   2.06368
    R2        2.07557  -0.00309   0.00000  -0.00903  -0.00903   2.06653
    R3        2.86257  -0.00348   0.00000  -0.01115  -0.01115   2.85142
    R4        2.89516   0.00159   0.00000   0.00538   0.00538   2.90053
    R5        2.84875  -0.00064   0.00000  -0.00200  -0.00200   2.84675
    R6        2.54682  -0.00385   0.00000  -0.00690  -0.00690   2.53992
    R7        2.06957  -0.00374   0.00000  -0.01083  -0.01083   2.05874
    R8        2.06840  -0.00172   0.00000  -0.00498  -0.00498   2.06342
    R9        2.06912  -0.00215   0.00000  -0.00624  -0.00624   2.06289
   R10        2.05928  -0.00219   0.00000  -0.00623  -0.00623   2.05305
   R11        2.82693   0.00310   0.00000   0.00936   0.00936   2.83630
   R12        2.06890  -0.00266   0.00000  -0.00768  -0.00768   2.06121
   R13        2.06765  -0.00159   0.00000  -0.00459  -0.00459   2.06307
   R14        2.06409  -0.00305   0.00000  -0.00876  -0.00876   2.05533
   R15        2.07014  -0.00273   0.00000  -0.00792  -0.00792   2.06223
   R16        2.06887  -0.00189   0.00000  -0.00547  -0.00547   2.06340
   R17        2.06421  -0.00290   0.00000  -0.00833  -0.00833   2.05588
   R18        2.84173  -0.00044   0.00000  -0.00135  -0.00135   2.84038
   R19        2.84696  -0.00077   0.00000  -0.00242  -0.00242   2.84454
   R20        2.54619  -0.00320   0.00000  -0.00573  -0.00573   2.54046
   R21        2.06946  -0.00396   0.00000  -0.01147  -0.01147   2.05800
   R22        2.06925  -0.00203   0.00000  -0.00588  -0.00588   2.06337
   R23        2.06918  -0.00201   0.00000  -0.00583  -0.00583   2.06334
   R24        2.06027  -0.00208   0.00000  -0.00595  -0.00595   2.05433
   R25        2.84500  -0.00138   0.00000  -0.00431  -0.00431   2.84069
   R26        2.06840  -0.00239   0.00000  -0.00691  -0.00691   2.06149
   R27        2.07442  -0.00276   0.00000  -0.00805  -0.00805   2.06637
    A1        1.83006   0.00205   0.00000   0.02211   0.02195   1.85200
    A2        1.93130  -0.00018   0.00000   0.00552   0.00554   1.93685
    A3        1.91971  -0.00200   0.00000  -0.01368  -0.01372   1.90599
    A4        1.90133  -0.00008   0.00000   0.00125   0.00125   1.90258
    A5        1.91817  -0.00275   0.00000  -0.02407  -0.02410   1.89406
    A6        1.95883   0.00287   0.00000   0.00937   0.00941   1.96824
    A7        2.00707   0.00174   0.00000   0.00719   0.00664   2.01371
    A8        2.17221  -0.00412   0.00000  -0.01591  -0.01642   2.15578
    A9        2.10370   0.00240   0.00000   0.00987   0.00932   2.11302
   A10        1.95917  -0.00265   0.00000  -0.01329  -0.01325   1.94592
   A11        1.92847   0.00228   0.00000   0.01215   0.01217   1.94065
   A12        1.92477   0.00166   0.00000   0.00905   0.00907   1.93383
   A13        1.87690   0.00055   0.00000   0.00556   0.00560   1.88250
   A14        1.87759   0.00111   0.00000   0.01034   0.01037   1.88796
   A15        1.89477  -0.00307   0.00000  -0.02464  -0.02464   1.87013
   A16        2.06927  -0.00195   0.00000  -0.01344  -0.01346   2.05581
   A17        2.22593  -0.00182   0.00000  -0.00815  -0.00817   2.21776
   A18        1.98786   0.00378   0.00000   0.02176   0.02174   2.00960
   A19        1.91010   0.00237   0.00000   0.01549   0.01544   1.92554
   A20        1.91739   0.00384   0.00000   0.02263   0.02260   1.93999
   A21        1.98073  -0.00283   0.00000  -0.01738  -0.01730   1.96343
   A22        1.88723  -0.00306   0.00000  -0.01880  -0.01897   1.86826
   A23        1.87276   0.00045   0.00000   0.00451   0.00458   1.87734
   A24        1.89302  -0.00096   0.00000  -0.00755  -0.00747   1.88555
   A25        1.89056  -0.00237   0.00000  -0.02141  -0.02139   1.86916
   A26        1.86362   0.00194   0.00000   0.01654   0.01655   1.88017
   A27        1.92095  -0.00001   0.00000  -0.00099  -0.00098   1.91997
   A28        1.88484   0.00022   0.00000   0.00324   0.00326   1.88810
   A29        1.92166   0.00225   0.00000   0.01142   0.01144   1.93310
   A30        1.97932  -0.00212   0.00000  -0.00958  -0.00956   1.96976
   A31        1.99476   0.00146   0.00000   0.00582   0.00579   2.00055
   A32        2.18283  -0.00335   0.00000  -0.01322  -0.01324   2.16959
   A33        2.10555   0.00189   0.00000   0.00752   0.00749   2.11305
   A34        1.96060  -0.00277   0.00000  -0.01386  -0.01382   1.94678
   A35        1.92345   0.00175   0.00000   0.00879   0.00881   1.93227
   A36        1.92494   0.00221   0.00000   0.01240   0.01242   1.93737
   A37        1.87879   0.00092   0.00000   0.00792   0.00795   1.88674
   A38        1.87925   0.00091   0.00000   0.00929   0.00933   1.88858
   A39        1.89479  -0.00313   0.00000  -0.02539  -0.02538   1.86941
   A40        2.06737  -0.00180   0.00000  -0.01218  -0.01258   2.05479
   A41        2.22782  -0.00177   0.00000  -0.00779  -0.00819   2.21962
   A42        1.98786   0.00359   0.00000   0.02079   0.02037   2.00823
   A43        1.94446   0.00330   0.00000   0.01369   0.01374   1.95820
   A44        1.93090  -0.00167   0.00000  -0.01698  -0.01705   1.91384
   A45        1.91631  -0.00337   0.00000  -0.02312  -0.02332   1.89299
   A46        1.94477  -0.00129   0.00000  -0.00734  -0.00729   1.93749
   A47        1.88209   0.00136   0.00000   0.02217   0.02228   1.90437
   A48        1.84176   0.00155   0.00000   0.01192   0.01166   1.85343
    D1       -2.64809  -0.00158   0.00000  -0.05499  -0.05480  -2.70289
    D2        0.47163  -0.00062   0.00000   0.00618   0.00597   0.47759
    D3       -0.64494   0.00074   0.00000  -0.02463  -0.02440  -0.66934
    D4        2.47478   0.00170   0.00000   0.03654   0.03637   2.51114
    D5        1.48336  -0.00090   0.00000  -0.04805  -0.04786   1.43550
    D6       -1.68010   0.00005   0.00000   0.01312   0.01291  -1.66720
    D7        0.96556   0.00055   0.00000   0.01722   0.01722   0.98278
    D8        3.13911   0.00005   0.00000   0.00516   0.00513  -3.13895
    D9       -1.11823  -0.00105   0.00000  -0.00401  -0.00383  -1.12207
   D10       -1.04072   0.00078   0.00000   0.01203   0.01195  -1.02878
   D11        1.13283   0.00028   0.00000  -0.00002  -0.00015   1.13269
   D12       -3.12451  -0.00082   0.00000  -0.00920  -0.00911  -3.13362
   D13        3.12378   0.00088   0.00000   0.02097   0.02092  -3.13849
   D14       -0.98585   0.00038   0.00000   0.00892   0.00882  -0.97703
   D15        1.03999  -0.00072   0.00000  -0.00026  -0.00014   1.03985
   D16        3.13135   0.00068   0.00000   0.04811   0.04841  -3.10343
[...]
                 (A) (A) (A) (A) (A) (A) (A) (A) (A) (A) (A) (A)
                 (A) (A) (A) (A) (A) (A) (A) (A) (A) (A) (A) (A)
                 (A) (A) (A) (A) (A) (A) (A) (A) (A) (A) (A) (A)
                 (A) (A) (A) (A) (A) (A) (A) (A) (A) (A) (A) (A)
                 (A) (A) (A) (A) (A) (A) (A) (A) (A) (A) (A) (A)
                 (A) (A) (A) (A) (A) (A) (A) (A) (A) (A) (A) (A)
                 (A) (A) (A) (A) (A) (A) (A) (A) (A) (A) (A) (A)
                 (A) (A) (A) (A) (A) (A) (A) (A) (A) (A) (A) (A)
                 (A) (A) (A) (A) (A) (A) (A) (A) (A) (A) (A) (A)
                 (A) (A) (A) (A) (A) (A) (A) (A) (A) (A) (A) (A)
                 (A) (A) (A) (A) (A) (A) (A) (A) (A) (A) (A) (A)
                 (A) (A) (A) (A) (A) (A) (A) (A) (A) (A) (A) (A)
                 (A) (A) (A) (A) (A) (A) (A) (A) (A) (A) (A) (A)
                 (A) (A) (A) (A) (A) (A) (A) (A) (A) (A) (A) (A)
                 (A) (A) (A) (A) (A) (A) (A) (A) (A)
 The electronic state is 1-A.
 Alpha  occ. eigenvalues --  -11.23028 -11.22456 -11.21863 -11.21726 -11.21721
 Alpha  occ. eigenvalues --  -11.21541 -11.21497 -11.21449 -11.21393 -11.21358
 Alpha  occ. eigenvalues --   -1.10803  -1.08495  -1.01828  -0.98138  -0.93839
 Alpha  occ. eigenvalues --   -0.91936  -0.86954  -0.82861  -0.70567  -0.69489
 Alpha  occ. eigenvalues --   -0.64754  -0.61539  -0.60720  -0.58828  -0.58414
 Alpha  occ. eigenvalues --   -0.56814  -0.55405  -0.54979  -0.53298  -0.52217
 Alpha  occ. eigenvalues --   -0.51714  -0.51214  -0.50653  -0.50166  -0.47383
 Alpha  occ. eigenvalues --   -0.46917  -0.44458  -0.33328  -0.31563
 Alpha virt. eigenvalues --    0.18100   0.19932   0.22053   0.24536   0.24955
 Alpha virt. eigenvalues --    0.27424   0.28601   0.28877   0.30353   0.30694
 Alpha virt. eigenvalues --    0.31966   0.32601   0.32969   0.33726   0.34466
 Alpha virt. eigenvalues --    0.35524   0.36421   0.37370   0.38662   0.39972
 Alpha virt. eigenvalues --    0.40998   0.42095   0.42777   0.44262   0.45477
 Alpha virt. eigenvalues --    0.51938   0.54227   0.61292   0.62632   0.69521
 Alpha virt. eigenvalues --    0.71676   0.71855   0.74127   0.75627   0.76300
 Alpha virt. eigenvalues --    0.77310   0.78587   0.80192   0.80428   0.82510
 Alpha virt. eigenvalues --    0.83060   0.85963   0.89706   0.90634   0.91906
 Alpha virt. eigenvalues --    0.92727   0.94246   0.96733   0.97890   0.99038
 Alpha virt. eigenvalues --    0.99663   1.01316   1.02330   1.04636   1.06421
 Alpha virt. eigenvalues --    1.06946   1.08561   1.08610   1.11036   1.12563
 Alpha virt. eigenvalues --    1.13528   1.14242   1.14315   1.15516   1.15561
 Alpha virt. eigenvalues --    1.15995   1.16443   1.18511   1.18881   1.20423
 Alpha virt. eigenvalues --    1.21361   1.22874   1.23837   1.26678   1.27279
 Alpha virt. eigenvalues --    1.29587   1.40505   1.41229   1.45131   1.46302
 Alpha virt. eigenvalues --    1.47303   1.54539   1.56916   1.57904   1.58162
 Alpha virt. eigenvalues --    1.61580   1.62900   1.65166   1.67986   1.70099
 Alpha virt. eigenvalues --    1.73688   1.82808   1.91104   1.92024   1.96649
 Alpha virt. eigenvalues --    1.98629   2.01394   2.02264   2.04662   2.08570
 Alpha virt. eigenvalues --    2.09659   2.11023   2.11867   2.13286   2.14333
 Alpha virt. eigenvalues --    2.15615   2.17830   2.19386   2.23464   2.28302
 Alpha virt. eigenvalues --    2.29342   2.30634   2.33018   2.35331   2.35655
 Alpha virt. eigenvalues --    2.35947   2.36091   2.39306   2.40246   2.40800
 Alpha virt. eigenvalues --    2.42218   2.43338   2.43738   2.45452   2.46063
 Alpha virt. eigenvalues --    2.47468   2.49490   2.50160   2.50478   2.53353
 Alpha virt. eigenvalues --    2.56171   2.59443   2.61268   2.62977   2.65059
 Alpha virt. eigenvalues --    2.67062   2.68311   2.71449   2.72617   2.74255
 Alpha virt. eigenvalues --    2.76086   2.77474   2.80595   2.82947   2.83712
 Alpha virt. eigenvalues --    2.86556   2.90534   2.92645   2.94406   2.94575
 Alpha virt. eigenvalues --    2.97681   2.98672   3.01242   3.02716   3.05048
 Alpha virt. eigenvalues --    3.06983   3.08131   3.09712   3.12652   3.17075
 Alpha virt. eigenvalues --    3.17580   3.18813   3.20184   3.20611   3.22304
 Alpha virt. eigenvalues --    3.23445   3.25849   3.26685   3.27777   3.38376
 Alpha virt. eigenvalues --    3.40097   3.45764   3.46979   3.56086   3.58279
 Alpha virt. eigenvalues --    3.59222   3.61997   3.68641   3.74872   3.78914
 Alpha virt. eigenvalues --    3.79698   3.81279   3.82681   3.83341   3.84006
 Alpha virt. eigenvalues --    3.84104   3.86511   3.88184   3.89137   3.91421
 Alpha virt. eigenvalues --    3.97579   4.59401   4.62757   4.74521   4.82179
 Alpha virt. eigenvalues --    4.89167   4.92294   4.93230   5.07407   5.10903
 Alpha virt. eigenvalues --    5.17835
          Condensed to atoms (all electrons):
               1          2          3          4          5          6
     1  C    5.003997   0.413411   0.412745   0.339222  -0.057161   0.003819
     2  H    0.413411   0.576310  -0.028359  -0.039654   0.003215  -0.000111
     3  H    0.412745  -0.028359   0.584867  -0.045647  -0.004621   0.000114
     4  C    0.339222  -0.039654  -0.045647   4.951262   0.352880  -0.042642
     5  C   -0.057161   0.003215  -0.004621   0.352880   4.891657   0.407271
     6  H    0.003819  -0.000111   0.000114  -0.042642   0.407271   0.568320
     7  H   -0.000045  -0.000012  -0.000557  -0.045807   0.400489  -0.027516
     8  H   -0.003571  -0.000037   0.002410  -0.041600   0.397676  -0.026708
     9  C   -0.046576  -0.001941   0.002347   0.696859  -0.046080  -0.002982
    10  H    0.003280   0.000029  -0.000115  -0.037937  -0.006573   0.002347
    11  C   -0.007739  -0.002699   0.000152  -0.049997   0.003357   0.000133
    12  H    0.000295  -0.000067  -0.000013  -0.000357  -0.000097  -0.000005
    13  H    0.000167   0.000160   0.000018  -0.000541  -0.000105  -0.000006
    14  H   -0.002166  -0.001508   0.000038  -0.000577   0.000102   0.000005
    15  C    0.000549  -0.000016   0.000191  -0.000019  -0.000025   0.000000
    16  H    0.000120  -0.000001  -0.000099  -0.000004   0.000001  -0.000000
    17  H   -0.000041   0.000000   0.000017   0.000001  -0.000000   0.000000
    18  H   -0.000058  -0.000011   0.000094  -0.000061   0.000096  -0.000001
    19  C   -0.004098   0.000622   0.001256  -0.000004   0.000007  -0.000000
    20  C   -0.000102  -0.000001  -0.000045   0.000002  -0.000000   0.000000
    21  H   -0.000003   0.000002  -0.000002   0.000000  -0.000000  -0.000000
    22  H   -0.000005   0.000000   0.000002   0.000000  -0.000000   0.000000
    23  H    0.000024  -0.000001  -0.000008  -0.000000   0.000000  -0.000000
    24  C   -0.062090  -0.001230   0.000057   0.006210  -0.000074   0.000002
    25  H   -0.000091   0.001049   0.000171  -0.000105  -0.000002   0.000000
    26  C    0.331128  -0.042384  -0.045729  -0.055684  -0.001011  -0.000108
    27  H   -0.042601   0.004316  -0.002340  -0.002245  -0.000436  -0.000040
    28  H   -0.046717  -0.002896   0.004692  -0.001441   0.000280  -0.000004
               7          8          9         10         11         12
     1  C   -0.000045  -0.003571  -0.046576   0.003280  -0.007739   0.000295
     2  H   -0.000012  -0.000037  -0.001941   0.000029  -0.002699  -0.000067
     3  H   -0.000557   0.002410   0.002347  -0.000115   0.000152  -0.000013
     4  C   -0.045807  -0.041600   0.696859  -0.037937  -0.049997  -0.000357
     5  C    0.400489   0.397676  -0.046080  -0.006573   0.003357  -0.000097
     6  H   -0.027516  -0.026708  -0.002982   0.002347   0.000133  -0.000005
     7  H    0.599593  -0.037733  -0.000883   0.000143  -0.000102   0.000016
     8  H   -0.037733   0.591603  -0.000465   0.000218  -0.000104  -0.000004
     9  C   -0.000883  -0.000465   4.938271   0.404337   0.340912  -0.041711
    10  H    0.000143   0.000218   0.404337   0.559262  -0.041317  -0.001238
    11  C   -0.000102  -0.000104   0.340912  -0.041317   4.898015   0.401889
    12  H    0.000016  -0.000004  -0.041711  -0.001238   0.401889   0.585671
    13  H   -0.000004   0.000017  -0.041774  -0.001163   0.401438  -0.035520
    14  H   -0.000002   0.000001  -0.043875   0.003330   0.409145  -0.029082
    15  C   -0.000043  -0.000001  -0.000000  -0.000000  -0.000000  -0.000000
    16  H   -0.000001   0.000000   0.000000  -0.000000   0.000000   0.000000
    17  H   -0.000000   0.000000   0.000000   0.000000   0.000000  -0.000000
    18  H    0.000361  -0.000000  -0.000001   0.000000  -0.000000   0.000000
    19  C    0.000021  -0.000001  -0.000003   0.000000   0.000000   0.000000
    20  C   -0.000000   0.000000  -0.000000   0.000000   0.000000  -0.000000
    21  H   -0.000000  -0.000000  -0.000000   0.000000  -0.000000  -0.000000
    22  H    0.000000   0.000000  -0.000000   0.000000  -0.000000  -0.000000
    23  H    0.000000  -0.000000   0.000000  -0.000000  -0.000000   0.000000
    24  C   -0.000104   0.000003   0.000036   0.000002  -0.000027  -0.000007
    25  H   -0.000000   0.000000   0.000007  -0.000000  -0.000002  -0.000000
    26  C    0.000669   0.000075  -0.004455  -0.000120   0.000509   0.000149
    27  H   -0.000466   0.000058   0.000648   0.000001  -0.000030  -0.000000
    28  H   -0.000003   0.000005   0.001236  -0.000038   0.000051  -0.000081
              13         14         15         16         17         18
     1  C    0.000167  -0.002166   0.000549   0.000120  -0.000041  -0.000058
     2  H    0.000160  -0.001508  -0.000016  -0.000001   0.000000  -0.000011
     3  H    0.000018   0.000038   0.000191  -0.000099   0.000017   0.000094
     4  C   -0.000541  -0.000577  -0.000019  -0.000004   0.000001  -0.000061
     5  C   -0.000105   0.000102  -0.000025   0.000001  -0.000000   0.000096
     6  H   -0.000006   0.000005   0.000000  -0.000000   0.000000  -0.000001
     7  H   -0.000004  -0.000002  -0.000043  -0.000001  -0.000000   0.000361
     8  H    0.000017   0.000001  -0.000001   0.000000   0.000000  -0.000000
     9  C   -0.041774  -0.043875  -0.000000   0.000000   0.000000  -0.000001
    10  H   -0.001163   0.003330  -0.000000  -0.000000   0.000000   0.000000
    11  C    0.401438   0.409145  -0.000000   0.000000   0.000000  -0.000000
    12  H   -0.035520  -0.029082  -0.000000   0.000000  -0.000000   0.000000
    13  H    0.584890  -0.027817   0.000000  -0.000000   0.000000  -0.000000
    14  H   -0.027817   0.577276   0.000000  -0.000000   0.000000   0.000000
    15  C    0.000000   0.000000   4.904567   0.401034   0.400306   0.406928
    16  H   -0.000000  -0.000000   0.401034   0.586876  -0.035758  -0.028092
    17  H    0.000000   0.000000   0.400306  -0.035758   0.585123  -0.026774
    18  H   -0.000000   0.000000   0.406928  -0.028092  -0.026774   0.570628
    19  C   -0.000000   0.000001   0.350683  -0.043358  -0.043642  -0.037727
    20  C    0.000000  -0.000000  -0.065053  -0.002670  -0.002204   0.003758
    21  H   -0.000000   0.000000   0.003789  -0.000029  -0.000055  -0.000115
    22  H    0.000000   0.000000  -0.001177  -0.000486   0.002752  -0.000032
    23  H   -0.000000  -0.000000  -0.001990   0.002769  -0.000448  -0.000068
    24  C    0.000002   0.000064  -0.044156  -0.000024  -0.000377  -0.003150
    25  H   -0.000000   0.000025   0.003541  -0.000122  -0.000120   0.000051
    26  C   -0.000037  -0.000554  -0.007949   0.000348   0.000140  -0.002567
    27  H   -0.000000  -0.000004  -0.002567  -0.000063   0.000086  -0.001997
    28  H    0.000025   0.000016   0.000178  -0.000014   0.000024   0.000062
              19         20         21         22         23         24
     1  C   -0.004098  -0.000102  -0.000003  -0.000005   0.000024  -0.062090
     2  H    0.000622  -0.000001   0.000002   0.000000  -0.000001  -0.001230
     3  H    0.001256  -0.000045  -0.000002   0.000002  -0.000008   0.000057
     4  C   -0.000004   0.000002   0.000000   0.000000  -0.000000   0.006210
     5  C    0.000007  -0.000000  -0.000000  -0.000000   0.000000  -0.000074
     6  H   -0.000000   0.000000  -0.000000   0.000000  -0.000000   0.000002
     7  H    0.000021  -0.000000  -0.000000   0.000000   0.000000  -0.000104
     8  H   -0.000001   0.000000  -0.000000   0.000000  -0.000000   0.000003
     9  C   -0.000003  -0.000000  -0.000000  -0.000000   0.000000   0.000036
    10  H    0.000000   0.000000   0.000000   0.000000  -0.000000   0.000002
    11  C    0.000000   0.000000  -0.000000  -0.000000  -0.000000  -0.000027
    12  H    0.000000  -0.000000  -0.000000  -0.000000   0.000000  -0.000007
    13  H   -0.000000   0.000000  -0.000000   0.000000  -0.000000   0.000002
    14  H    0.000001  -0.000000   0.000000   0.000000  -0.000000   0.000064
    15  C    0.350683  -0.065053   0.003789  -0.001177  -0.001990  -0.044156
    16  H   -0.043358  -0.002670  -0.000029  -0.000486   0.002769  -0.000024
    17  H   -0.043642  -0.002204  -0.000055   0.002752  -0.000448  -0.000377
    18  H   -0.037727   0.003758  -0.000115  -0.000032  -0.000068  -0.003150
    19  C    4.915064   0.353472  -0.041665  -0.044307  -0.043823   0.696285
    20  C    0.353472   4.900552   0.406165   0.398829   0.398175  -0.044228
    21  H   -0.041665   0.406165   0.565965  -0.026546  -0.026667  -0.002577
    22  H   -0.044307   0.398829  -0.026546   0.593696  -0.037823  -0.001279
    23  H   -0.043823   0.398175  -0.026667  -0.037823   0.594540  -0.000470
    24  C    0.696285  -0.044228  -0.002577  -0.001279  -0.000470   4.960934
    25  H   -0.038332  -0.006998   0.002368   0.000188   0.000180   0.403960
    26  C   -0.049354   0.003136   0.000144  -0.000128  -0.000071   0.340992
    27  H    0.000417   0.000050   0.000007   0.000006  -0.000004  -0.044503
    28  H    0.001446  -0.000091  -0.000009   0.000009  -0.000002  -0.041006
              25         26         27         28
     1  C   -0.000091   0.331128  -0.042601  -0.046717
     2  H    0.001049  -0.042384   0.004316  -0.002896
     3  H    0.000171  -0.045729  -0.002340   0.004692
     4  C   -0.000105  -0.055684  -0.002245  -0.001441
     5  C   -0.000002  -0.001011  -0.000436   0.000280
     6  H    0.000000  -0.000108  -0.000040  -0.000004
     7  H   -0.000000   0.000669  -0.000466  -0.000003
     8  H    0.000000   0.000075   0.000058   0.000005
     9  C    0.000007  -0.004455   0.000648   0.001236
    10  H   -0.000000  -0.000120   0.000001  -0.000038
    11  C   -0.000002   0.000509  -0.000030   0.000051
    12  H   -0.000000   0.000149  -0.000000  -0.000081
    13  H   -0.000000  -0.000037  -0.000000   0.000025
    14  H    0.000025  -0.000554  -0.000004   0.000016
    15  C    0.003541  -0.007949  -0.002567   0.000178
    16  H   -0.000122   0.000348  -0.000063  -0.000014
    17  H   -0.000120   0.000140   0.000086   0.000024
    18  H    0.000051  -0.002567  -0.001997   0.000062
    19  C   -0.038332  -0.049354   0.000417   0.001446
    20  C   -0.006998   0.003136   0.000050  -0.000091
    21  H    0.002368   0.000144   0.000007  -0.000009
    22  H    0.000188  -0.000128   0.000006   0.000009
    23  H    0.000180  -0.000071  -0.000004  -0.000002
    24  C    0.403960   0.340992  -0.044503  -0.041006
    25  H    0.558056  -0.040061   0.003267  -0.003353
    26  C   -0.040061   4.977839   0.416251   0.413228
    27  H    0.003267   0.416251   0.582598  -0.028540
    28  H   -0.003353   0.413228  -0.028540   0.579538
 Mulliken charges:
               1
     1  C   -0.235696
     2  H    0.121814
     3  H    0.118365
     4  C    0.017883
     5  C   -0.340845
     6  H    0.118112
     7  H    0.111985
     8  H    0.118156
     9  C   -0.153908
    10  H    0.115552
    11  C   -0.353585
    12  H    0.120163
    13  H    0.120250
    14  H    0.115581
    15  C   -0.348771
    16  H    0.119572
    17  H    0.120971
    18  H    0.118676
    19  C    0.027041
    20  C   -0.342746
    21  H    0.119226
    22  H    0.116299
    23  H    0.115688
    24  C   -0.163245
    25  H    0.116321
    26  C   -0.234395
    27  H    0.118132
    28  H    0.123405
 Sum of Mulliken charges =  -0.00000
 Mulliken charges with hydrogens summed into heavy atoms:
               1
     1  C    0.004483
     4  C    0.017883
     5  C    0.007409
     9  C   -0.038356
    11  C    0.002408
    15  C    0.010448
    19  C    0.027041
    20  C    0.008468
    24  C   -0.046924
    26  C    0.007142
 Electronic spatial extent (au):  <R**2>=           2498.6176
 Charge=              0.0000 electrons
 Dipole moment (field-independent basis, Debye):
    X=             -0.3626    Y=              0.1699    Z=              0.0498  Tot=              0.4035
 Quadrupole moment (field-independent basis, Debye-Ang):
   XX=            -63.7582   YY=            -63.7112   ZZ=            -67.3994
   XY=             -1.0617   XZ=             -1.2177   YZ=             -0.3674
 Traceless Quadrupole moment (field-independent basis, Debye-Ang):
   XX=              1.1981   YY=              1.2451   ZZ=             -2.4431
   XY=             -1.0617   XZ=             -1.2177   YZ=             -0.3674
 Octapole moment (field-independent basis, Debye-Ang**2):
  XXX=             -2.8324  YYY=             -2.8562  ZZZ=              0.8775  XYY=              0.7382
  XXY=              1.7310  XXZ=             -2.8067  XZZ=             -1.5462  YZZ=              1.4376
  YYZ=              0.7861  XYZ=              0.4940
 Hexadecapole moment (field-independent basis, Debye-Ang**3):
 XXXX=          -2633.5352 YYYY=           -638.9543 ZZZZ=           -166.0441 XXXY=            -10.5035
 XXXZ=            -13.5605 YYYX=              7.0821 YYYZ=             -1.6739 ZZZX=             -4.0399
 ZZZY=              2.3776 XXYY=           -550.6721 XXZZ=           -483.2678 YYZZ=           -131.1157
 XXYZ=             -4.5756 YYXZ=             -2.5312 ZZXY=             -7.7339
 N-N= 5.156964584944D+02 E-N=-1.936106283452D+03  KE= 3.887456777889D+02
 No NMR shielding tensors so no spin-rotation constants.
 Leave Link  601 at Fri Sep 17 17:51:24 2021, MaxMem=   524288000 cpu:               0.3 elap:               0.6
 (Enter /opt/gaussian/g16_legacy/l9999.exe)
 1\1\GINC-TRUENO90\FOpt\RMP2-FC\6-31G(d,p)\C10H18\JRAMOS\17-Sep-2021\0\
 \#p opt mp2/6-31g(d,p)\\Conformer number 890. Energy MM = 23.287 kcal/
 mol\\0,1\C,-0.70178401,0.6383858215,0.1882017582\H,-0.8282108189,1.513
 2850509,-0.4518503448\H,-0.0576972896,0.9535621316,1.0138121512\C,-2.0
 234746247,0.1624432827,0.736299235\C,-1.9566853295,-0.5165461726,2.077
 5675054\H,-2.9292561914,-0.9028959709,2.3797995455\H,-1.2517557076,-1.
 3508639339,2.0602818442\H,-1.6088606169,0.1766701193,2.8465476327\C,-3
 .1909370444,0.2754730839,0.0759745393\H,-4.0801309243,-0.1264492005,0.
 5538830739\C,-3.4114113445,0.9010217407,-1.2677522883\H,-3.839424736,0
 .1771431231,-1.9636228958\H,-4.1161335629,1.7319760187,-1.2005260562\H
 ,-2.489932946,1.2761552989,-1.7067633643\C,2.8035814754,-1.0068965878,
 0.6757896317\H,3.325820454,-0.3991773418,1.4177875484\H,3.4439343802,-
 1.8661330427,0.4642643287\H,1.884774902,-1.3707485276,1.1284977053\C,2
 .5660643209,-0.2059028642,-0.5743493141\C,3.8090251182,0.362548689,-1.
 2016822967\H,3.5793839662,0.9282004743,-2.1033711194\H,4.5095350525,-0
 .4329867981,-1.4656879922\H,4.3292668733,1.0239527986,-0.5052062134\C,
 1.3555987948,0.0061931559,-1.1243250221\H,1.3148088873,0.6220241515,-2
 .0194167741\C,0.0290280809,-0.4623090618,-0.6046643357\H,0.1417186708,
 -1.3455514292,0.0253868999\H,-0.6068458299,-0.7624740095,-1.4415753823
 \\Version=EM64L-G16RevA.03\State=1-A\HF=-389.1568792\MP2=-390.573553\R
 MSD=2.413e-09\RMSF=3.852e-06\Dipole=0.108963,-0.0153934,0.0322297\PG=C
 01 [X(C10H18)]\\@


 THE DIFFERENCE BETWEEN A NOOSE AND A HALO IS ONLY 12 INCHES.
 Job cpu time:       0 days  1 hours 39 minutes 18.1 seconds.
 Elapsed time:       0 days  1 hours 39 minutes 27.0 seconds.
 File lengths (MBytes):  RWF=     32 Int=      0 D2E=      0 Chk=      7 Scr=      1
 Normal termination of Gaussian 16 at Fri Sep 17 17:51:24 2021.
