 Entering Gaussian System, Link 0=/opt/gaussian/g16_legacy/g16
 Input=01-IsoP_2021_gaussian.com
 Output=01-IsoP_2021_gaussian.log
 Initial command:
 /opt/gaussian/g16_legacy/l1.exe "/scratch-local/jramos/2661343/Gau-29785.inp" -scrdir="/scratch-local/jramos/2661343/"
 Entering Link 1 = /opt/gaussian/g16_legacy/l1.exe PID=     29824.
  
 Copyright (c) 1988,1990,1992,1993,1995,1998,2003,2009,2016,
            Gaussian, Inc.  All Rights Reserved.
  
 This is part of the Gaussian(R) 16 program.  It is based on
 the Gaussian(R) 09 system (copyright 2009, Gaussian, Inc.),
 the Gaussian(R) 03 system (copyright 2003, Gaussian, Inc.),
 the Gaussian(R) 98 system (copyright 1998, Gaussian, Inc.),
 the Gaussian(R) 94 system (copyright 1995, Gaussian, Inc.),
 the Gaussian 92(TM) system (copyright 1992, Gaussian, Inc.),
 the Gaussian 90(TM) system (copyright 1990, Gaussian, Inc.),
 the Gaussian 88(TM) system (copyright 1988, Gaussian, Inc.),
 the Gaussian 86(TM) system (copyright 1986, Carnegie Mellon
 University), and the Gaussian 82(TM) system (copyright 1983,
 Carnegie Mellon University). Gaussian is a federally registered
 trademark of Gaussian, Inc.
  
 This software contains proprietary and confidential information,
 including trade secrets, belonging to Gaussian, Inc.
  
 This software is provided under written license and may be
 used, copied, transmitted, or stored only in accord with that
 written license.
  
 The following legend is applicable only to US Government
 contracts under FAR:
  
                    RESTRICTED RIGHTS LEGEND
  
 Use, reproduction and disclosure by the US Government is
 subject to restrictions as set forth in subparagraphs (a)
 and (c) of the Commercial Computer Software - Restricted
 Rights clause in FAR 52.227-19.
  
 Gaussian, Inc.
 340 Quinnipiac St., Bldg. 40, Wallingford CT 06492
  
  
 ---------------------------------------------------------------
 Warning -- This program may not be used in any manner that
 competes with the business of Gaussian, Inc. or will provide
 assistance to any competitor of Gaussian, Inc.  The licensee
 of this program is prohibited from giving any competitor of
 Gaussian, Inc. access to this program.  By using this program,
 the user acknowledges that Gaussian, Inc. is engaged in the
 business of creating and licensing software in the field of
 computational chemistry and represents and warrants to the
 licensee that it is not a competitor of Gaussian, Inc. and that
 it will not use this program in any manner prohibited above.
 ---------------------------------------------------------------
  

 Cite this work as:
 Gaussian 16, Revision A.03,
 M. J. Frisch, G. W. Trucks, H. B. Schlegel, G. E. Scuseria, 
 M. A. Robb, J. R. Cheeseman, G. Scalmani, V. Barone, 
 G. A. Petersson, H. Nakatsuji, X. Li, M. Caricato, A. V. Marenich, 
 J. Bloino, B. G. Janesko, R. Gomperts, B. Mennucci, H. P. Hratchian, 
 J. V. Ortiz, A. F. Izmaylov, J. L. Sonnenberg, D. Williams-Young, 
 F. Ding, F. Lipparini, F. Egidi, J. Goings, B. Peng, A. Petrone, 
 T. Henderson, D. Ranasinghe, V. G. Zakrzewski, J. Gao, N. Rega, 
 G. Zheng, W. Liang, M. Hada, M. Ehara, K. Toyota, R. Fukuda, 
 J. Hasegawa, M. Ishida, T. Nakajima, Y. Honda, O. Kitao, H. Nakai, 
 T. Vreven, K. Throssell, J. A. Montgomery, Jr., J. E. Peralta, 
 F. Ogliaro, M. J. Bearpark, J. J. Heyd, E. N. Brothers, K. N. Kudin, 
 V. N. Staroverov, T. A. Keith, R. Kobayashi, J. Normand, 
 K. Raghavachari, A. P. Rendell, J. C. Burant, S. S. Iyengar, 
 J. Tomasi, M. Cossi, J. M. Millam, M. Klene, C. Adamo, R. Cammi, 
 J. W. Ochterski, R. L. Martin, K. Morokuma, O. Farkas, 
 J. B. Foresman, and D. J. Fox, Gaussian, Inc., Wallingford CT, 2016.
 
 ******************************************
 Gaussian 16:  EM64L-G16RevA.03 25-Dec-2016
                17-Sep-2021 
 ******************************************
 %chk=01-IsoP_2021_gaussian.chk
 %nproc=1
 Will use up to    1 processors via shared memory.
 %mem=4000Mb
 ---------------------
 #p opt mp2/6-31g(d,p)
 ---------------------
 1/18=20,19=15,38=1/1,3;
 2/9=110,12=2,17=6,18=5,40=1/2;
 3/5=1,6=6,7=101,11=9,25=1,30=1,71=1/1,2,3;
 4//1;
 5/5=2,38=5/2;
 8/6=4,10=2/1;
 9/15=2,16=-3/6;
 10/5=1/2;
 6/7=2,8=2,9=2,10=2/1;
 7/12=2/1,2,3,16;
 1/18=20,19=15/3(2);
 2/9=110/2;
 99//99;
 2/9=110/2;
 3/5=1,6=6,7=101,11=9,25=1,30=1,71=1/1,2,3;
 4/5=5,16=3,69=1/1;
 5/5=2,38=5/2;
 8/6=4,10=2/1;
 9/15=2,16=-3/6;
 10/5=1/2;
 7/12=2/1,2,3,16;
 1/18=20,19=15/3(-8);
 2/9=110/2;
 6/7=2,8=2,9=2,10=2/1;
 99//99;
 Leave Link    1 at Fri Sep 17 13:32:35 2021, MaxMem=   524288000 cpu:               0.0 elap:               0.1
 (Enter /opt/gaussian/g16_legacy/l101.exe)
 --------------------------------------------------
 Conformer number 2021. Energy MM = 23.287 kcal/mol
 --------------------------------------------------
 Symbolic Z-matrix:
 Charge =  0 Multiplicity = 1
 C                    -0.3405   -0.8998    0.1883 
 H                     0.0481   -1.369     1.1 
 H                     0.2638   -1.3229   -0.6255 
 C                    -1.7915   -1.2764   -0.0297 
 C                    -2.2373   -1.2875   -1.4697 
 H                    -1.6394   -2.0005   -2.0467 
 H                    -3.2886   -1.5751   -1.5762 
 H                    -2.1203   -0.2944   -1.9148 
 C                    -2.6492   -1.6092    0.9552 
 H                    -3.6681   -1.8873    0.6868 
 C                    -2.3835   -1.6284    2.4272 
 H                    -3.1539   -1.047     2.9441 
 H                    -2.4261   -2.6565    2.7991 
 H                    -1.4161   -1.2014    2.7006 
 C                     3.6059    1.7682    0.0237 
 H                     3.8239    2.8189   -0.1941 
 H                     3.7662    1.6111    1.0956 
 H                     4.3261    1.1437   -0.515 
 C                     2.2006    1.4295   -0.4007 
 C                     1.9293    1.6386   -1.865 
 H                     1.976     2.7051   -2.1078 
 H                     2.6818    1.1154   -2.465 
 H                     0.9545    1.2624   -2.1837 
 C                     1.3047    0.9702    0.4947 
 H                     1.6235    0.8418    1.5293 
 C                    -0.1389    0.6175    0.2531 
 H                    -0.7299    1.0362    1.078 
 H                    -0.5211    1.0966   -0.6538 
 
 ITRead=  0  0  0  0  0  0  0  0  0  0  0  0  0  0  0  0  0  0  0  0
 ITRead=  0  0  0  0  0  0  0  0
 MicOpt= -1 -1 -1 -1 -1 -1 -1 -1 -1 -1 -1 -1 -1 -1 -1 -1 -1 -1 -1 -1
 MicOpt= -1 -1 -1 -1 -1 -1 -1 -1
 NAtoms=     28 NQM=       28 NQMF=       0 NMMI=      0 NMMIF=      0
                NMic=       0 NMicF=      0.
                    Isotopes and Nuclear Properties:
 (Nuclear quadrupole moments (NQMom) in fm**2, nuclear magnetic moments (NMagM)
  in nuclear magnetons)

  Atom         1           2           3           4           5           6           7           8           9          10
 IAtWgt=          12           1           1          12          12           1           1           1          12           1
 AtmWgt=  12.0000000   1.0078250   1.0078250  12.0000000  12.0000000   1.0078250   1.0078250   1.0078250  12.0000000   1.0078250
 NucSpn=           0           1           1           0           0           1           1           1           0           1
 AtZEff=  -0.0000000  -0.0000000  -0.0000000  -0.0000000  -0.0000000  -0.0000000  -0.0000000  -0.0000000  -0.0000000  -0.0000000
 NQMom=    0.0000000   0.0000000   0.0000000   0.0000000   0.0000000   0.0000000   0.0000000   0.0000000   0.0000000   0.0000000
 NMagM=    0.0000000   2.7928460   2.7928460   0.0000000   0.0000000   2.7928460   2.7928460   2.7928460   0.0000000   2.7928460
 AtZNuc=   6.0000000   1.0000000   1.0000000   6.0000000   6.0000000   1.0000000   1.0000000   1.0000000   6.0000000   1.0000000

  Atom        11          12          13          14          15          16          17          18          19          20
 IAtWgt=          12           1           1           1          12           1           1           1          12          12
 AtmWgt=  12.0000000   1.0078250   1.0078250   1.0078250  12.0000000   1.0078250   1.0078250   1.0078250  12.0000000  12.0000000
 NucSpn=           0           1           1           1           0           1           1           1           0           0
 AtZEff=  -0.0000000  -0.0000000  -0.0000000  -0.0000000  -0.0000000  -0.0000000  -0.0000000  -0.0000000  -0.0000000  -0.0000000
 NQMom=    0.0000000   0.0000000   0.0000000   0.0000000   0.0000000   0.0000000   0.0000000   0.0000000   0.0000000   0.0000000
 NMagM=    0.0000000   2.7928460   2.7928460   2.7928460   0.0000000   2.7928460   2.7928460   2.7928460   0.0000000   0.0000000
 AtZNuc=   6.0000000   1.0000000   1.0000000   1.0000000   6.0000000   1.0000000   1.0000000   1.0000000   6.0000000   6.0000000

  Atom        21          22          23          24          25          26          27          28
 IAtWgt=           1           1           1          12           1          12           1           1
 AtmWgt=   1.0078250   1.0078250   1.0078250  12.0000000   1.0078250  12.0000000   1.0078250   1.0078250
 NucSpn=           1           1           1           0           1           0           1           1
 AtZEff=  -0.0000000  -0.0000000  -0.0000000  -0.0000000  -0.0000000  -0.0000000  -0.0000000  -0.0000000
 NQMom=    0.0000000   0.0000000   0.0000000   0.0000000   0.0000000   0.0000000   0.0000000   0.0000000
 NMagM=    2.7928460   2.7928460   2.7928460   0.0000000   2.7928460   0.0000000   2.7928460   2.7928460
 AtZNuc=   1.0000000   1.0000000   1.0000000   6.0000000   1.0000000   6.0000000   1.0000000   1.0000000
 Leave Link  101 at Fri Sep 17 13:32:36 2021, MaxMem=   524288000 cpu:               0.3 elap:               0.5
 (Enter /opt/gaussian/g16_legacy/l103.exe)

 GradGradGradGradGradGradGradGradGradGradGradGradGradGradGradGradGradGrad
 Berny optimization.
 Initialization pass.
                           ----------------------------
                           !    Initial Parameters    !
                           ! (Angstroms and Degrees)  !
 --------------------------                            --------------------------
 ! Name  Definition              Value          Derivative Info.                !
 --------------------------------------------------------------------------------
 ! R1    R(1,2)                  1.0965         estimate D2E/DX2                !
 ! R2    R(1,3)                  1.0984         estimate D2E/DX2                !
 ! R3    R(1,4)                  1.5148         estimate D2E/DX2                !
 ! R4    R(1,26)                 1.532          estimate D2E/DX2                !
 ! R5    R(4,5)                  1.5075         estimate D2E/DX2                !
 ! R6    R(4,9)                  1.3478         estimate D2E/DX2                !
 ! R7    R(5,6)                  1.0949         estimate D2E/DX2                !
 ! R8    R(5,7)                  1.0951         estimate D2E/DX2                !
 ! R9    R(5,8)                  1.0946         estimate D2E/DX2                !
 ! R10   R(9,10)                 1.0897         estimate D2E/DX2                !
 ! R11   R(9,11)                 1.4959         estimate D2E/DX2                !
 ! R12   R(11,12)                1.0949         estimate D2E/DX2                !
 ! R13   R(11,13)                1.0941         estimate D2E/DX2                !
 ! R14   R(11,14)                1.0922         estimate D2E/DX2                !
 ! R15   R(15,16)                1.095          estimate D2E/DX2                !
 ! R16   R(15,17)                1.0951         estimate D2E/DX2                !
 ! R17   R(15,18)                1.0949         estimate D2E/DX2                !
 ! R18   R(15,19)                1.5066         estimate D2E/DX2                !
 ! R19   R(19,20)                1.5038         estimate D2E/DX2                !
 ! R20   R(19,24)                1.3473         estimate D2E/DX2                !
 ! R21   R(20,21)                1.0948         estimate D2E/DX2                !
 ! R22   R(20,22)                1.0954         estimate D2E/DX2                !
 ! R23   R(20,23)                1.0924         estimate D2E/DX2                !
 ! R24   R(24,25)                1.0902         estimate D2E/DX2                !
 ! R25   R(24,26)                1.5056         estimate D2E/DX2                !
 ! R26   R(26,27)                1.0977         estimate D2E/DX2                !
 ! R27   R(26,28)                1.0946         estimate D2E/DX2                !
 ! A1    A(2,1,3)              104.8458         estimate D2E/DX2                !
 ! A2    A(2,1,4)              110.6545         estimate D2E/DX2                !
 ! A3    A(2,1,26)             109.9981         estimate D2E/DX2                !
 ! A4    A(3,1,4)              108.9411         estimate D2E/DX2                !
 ! A5    A(3,1,26)             109.9039         estimate D2E/DX2                !
 ! A6    A(4,1,26)             112.2317         estimate D2E/DX2                !
 ! A7    A(1,4,5)              114.9965         estimate D2E/DX2                !
 ! A8    A(1,4,9)              124.4576         estimate D2E/DX2                !
 ! A9    A(5,4,9)              120.534          estimate D2E/DX2                !
 ! A10   A(4,5,6)              110.2863         estimate D2E/DX2                !
 ! A11   A(4,5,7)              112.2547         estimate D2E/DX2                !
 ! A12   A(4,5,8)              110.4969         estimate D2E/DX2                !
 ! A13   A(6,5,7)              107.5755         estimate D2E/DX2                !
 ! A14   A(6,5,8)              108.5524         estimate D2E/DX2                !
 ! A15   A(7,5,8)              107.5385         estimate D2E/DX2                !
 ! A16   A(4,9,10)             118.5583         estimate D2E/DX2                !
 ! A17   A(4,9,11)             127.5336         estimate D2E/DX2                !
 ! A18   A(10,9,11)            113.9009         estimate D2E/DX2                !
 ! A19   A(9,11,12)            109.437          estimate D2E/DX2                !
 ! A20   A(9,11,13)            109.8536         estimate D2E/DX2                !
 ! A21   A(9,11,14)            113.4918         estimate D2E/DX2                !
 ! A22   A(12,11,13)           108.126          estimate D2E/DX2                !
 ! A23   A(12,11,14)           107.3049         estimate D2E/DX2                !
 ! A24   A(13,11,14)           108.4669         estimate D2E/DX2                !
 ! A25   A(16,15,17)           107.6499         estimate D2E/DX2                !
 ! A26   A(16,15,18)           108.5711         estimate D2E/DX2                !
 ! A27   A(16,15,19)           110.2069         estimate D2E/DX2                !
 ! A28   A(17,15,18)           107.6651         estimate D2E/DX2                !
 ! A29   A(17,15,19)           112.3342         estimate D2E/DX2                !
 ! A30   A(18,15,19)           110.2873         estimate D2E/DX2                !
 ! A31   A(15,19,20)           114.2878         estimate D2E/DX2                !
 ! A32   A(15,19,24)           120.6423         estimate D2E/DX2                !
 ! A33   A(20,19,24)           125.0674         estimate D2E/DX2                !
 ! A34   A(19,20,21)           110.1028         estimate D2E/DX2                !
 ! A35   A(19,20,22)           110.0591         estimate D2E/DX2                !
 ! A36   A(19,20,23)           113.4018         estimate D2E/DX2                !
 ! A37   A(21,20,22)           108.3306         estimate D2E/DX2                !
 ! A38   A(21,20,23)           107.9896         estimate D2E/DX2                !
 ! A39   A(22,20,23)           106.7808         estimate D2E/DX2                !
 ! A40   A(19,24,25)           118.4495         estimate D2E/DX2                !
 ! A41   A(19,24,26)           127.6461         estimate D2E/DX2                !
 ! A42   A(25,24,26)           113.8965         estimate D2E/DX2                !
 ! A43   A(1,26,24)            111.4062         estimate D2E/DX2                !
 ! A44   A(1,26,27)            109.7974         estimate D2E/DX2                !
 ! A45   A(1,26,28)            110.6409         estimate D2E/DX2                !
 ! A46   A(24,26,27)           107.835          estimate D2E/DX2                !
 ! A47   A(24,26,28)           111.4214         estimate D2E/DX2                !
 ! A48   A(27,26,28)           105.5257         estimate D2E/DX2                !
 ! D1    D(2,1,4,5)           -151.7177         estimate D2E/DX2                !
 ! D2    D(2,1,4,9)             27.0248         estimate D2E/DX2                !
 ! D3    D(3,1,4,5)            -36.9552         estimate D2E/DX2                !
 ! D4    D(3,1,4,9)            141.7874         estimate D2E/DX2                !
 ! D5    D(26,1,4,5)            84.99           estimate D2E/DX2                !
 ! D6    D(26,1,4,9)           -96.2674         estimate D2E/DX2                !
 ! D7    D(2,1,26,24)           55.3195         estimate D2E/DX2                !
 ! D8    D(2,1,26,27)          -64.0705         estimate D2E/DX2                !
 ! D9    D(2,1,26,28)          179.8514         estimate D2E/DX2                !
 ! D10   D(3,1,26,24)          -59.6256         estimate D2E/DX2                !
 ! D11   D(3,1,26,27)         -179.0156         estimate D2E/DX2                !
 ! D12   D(3,1,26,28)           64.9063         estimate D2E/DX2                !
 ! D13   D(4,1,26,24)          178.9795         estimate D2E/DX2                !
 ! D14   D(4,1,26,27)           59.5895         estimate D2E/DX2                !
 ! D15   D(4,1,26,28)          -56.4886         estimate D2E/DX2                !
 ! D16   D(1,4,5,6)             59.4707         estimate D2E/DX2                !
 ! D17   D(1,4,5,7)            179.4112         estimate D2E/DX2                !
 ! D18   D(1,4,5,8)            -60.5505         estimate D2E/DX2                !
 ! D19   D(9,4,5,6)           -119.3256         estimate D2E/DX2                !
 ! D20   D(9,4,5,7)              0.6149         estimate D2E/DX2                !
 ! D21   D(9,4,5,8)            120.6532         estimate D2E/DX2                !
 ! D22   D(1,4,9,10)          -178.5599         estimate D2E/DX2                !
 ! D23   D(1,4,9,11)             2.4823         estimate D2E/DX2                !
 ! D24   D(5,4,9,10)             0.117          estimate D2E/DX2                !
 ! D25   D(5,4,9,11)          -178.8408         estimate D2E/DX2                !
 ! D26   D(4,9,11,12)          127.8595         estimate D2E/DX2                !
 ! D27   D(4,9,11,13)         -113.5741         estimate D2E/DX2                !
 ! D28   D(4,9,11,14)            8.0369         estimate D2E/DX2                !
 ! D29   D(10,9,11,12)         -51.1392         estimate D2E/DX2                !
 ! D30   D(10,9,11,13)          67.4272         estimate D2E/DX2                !
 ! D31   D(10,9,11,14)        -170.9619         estimate D2E/DX2                !
 ! D32   D(16,15,19,20)         59.5683         estimate D2E/DX2                !
 ! D33   D(16,15,19,24)       -120.983          estimate D2E/DX2                !
 ! D34   D(17,15,19,20)        179.6013         estimate D2E/DX2                !
 ! D35   D(17,15,19,24)         -0.95           estimate D2E/DX2                !
 ! D36   D(18,15,19,20)        -60.291          estimate D2E/DX2                !
 ! D37   D(18,15,19,24)        119.1577         estimate D2E/DX2                !
 ! D38   D(15,19,20,21)        -66.7637         estimate D2E/DX2                !
 ! D39   D(15,19,20,22)         52.5882         estimate D2E/DX2                !
 ! D40   D(15,19,20,23)        172.1213         estimate D2E/DX2                !
 ! D41   D(24,19,20,21)        113.8158         estimate D2E/DX2                !
 ! D42   D(24,19,20,22)       -126.8323         estimate D2E/DX2                !
 ! D43   D(24,19,20,23)         -7.2992         estimate D2E/DX2                !
 ! D44   D(15,19,24,25)         -0.5259         estimate D2E/DX2                !
 ! D45   D(15,19,24,26)        178.3854         estimate D2E/DX2                !
 ! D46   D(20,19,24,25)        178.8601         estimate D2E/DX2                !
 ! D47   D(20,19,24,26)         -2.2286         estimate D2E/DX2                !
 ! D48   D(19,24,26,1)         103.6599         estimate D2E/DX2                !
 ! D49   D(19,24,26,27)       -135.7905         estimate D2E/DX2                !
 ! D50   D(19,24,26,28)        -20.4323         estimate D2E/DX2                !
 ! D51   D(25,24,26,1)         -77.3871         estimate D2E/DX2                !
 ! D52   D(25,24,26,27)         43.1625         estimate D2E/DX2                !
 ! D53   D(25,24,26,28)        158.5207         estimate D2E/DX2                !
 --------------------------------------------------------------------------------
 Trust Radius=3.00D-01 FncErr=1.00D-07 GrdErr=1.00D-07 EigMax=2.50D+02 EigMin=1.00D-04
 Number of steps in this run=    138 maximum allowed number of steps=    168.
 GradGradGradGradGradGradGradGradGradGradGradGradGradGradGradGradGradGrad

 Leave Link  103 at Fri Sep 17 13:32:36 2021, MaxMem=   524288000 cpu:               0.0 elap:               0.1
 (Enter /opt/gaussian/g16_legacy/l202.exe)
                          Input orientation:                          
 ---------------------------------------------------------------------
 Center     Atomic      Atomic             Coordinates (Angstroms)
 Number     Number       Type             X           Y           Z
 ---------------------------------------------------------------------
      1          6           0       -0.340500   -0.899800    0.188300
      2          1           0        0.048100   -1.369000    1.100000
      3          1           0        0.263800   -1.322900   -0.625500
      4          6           0       -1.791500   -1.276400   -0.029700
      5          6           0       -2.237300   -1.287500   -1.469700
      6          1           0       -1.639400   -2.000500   -2.046700
      7          1           0       -3.288600   -1.575100   -1.576200
      8          1           0       -2.120300   -0.294400   -1.914800
      9          6           0       -2.649200   -1.609200    0.955200
     10          1           0       -3.668100   -1.887300    0.686800
     11          6           0       -2.383500   -1.628400    2.427200
     12          1           0       -3.153900   -1.047000    2.944100
     13          1           0       -2.426100   -2.656500    2.799100
     14          1           0       -1.416100   -1.201400    2.700600
     15          6           0        3.605900    1.768200    0.023700
     16          1           0        3.823900    2.818900   -0.194100
     17          1           0        3.766200    1.611100    1.095600
     18          1           0        4.326100    1.143700   -0.515000
     19          6           0        2.200600    1.429500   -0.400700
     20          6           0        1.929300    1.638600   -1.865000
     21          1           0        1.976000    2.705100   -2.107800
     22          1           0        2.681800    1.115400   -2.465000
     23          1           0        0.954500    1.262400   -2.183700
     24          6           0        1.304700    0.970200    0.494700
     25          1           0        1.623500    0.841800    1.529300
     26          6           0       -0.138900    0.617500    0.253100
     27          1           0       -0.729900    1.036200    1.078000
     28          1           0       -0.521100    1.096600   -0.653800
 ---------------------------------------------------------------------
                    Distance matrix (angstroms):
                    1          2          3          4          5
     1  C    0.000000
     2  H    1.096520   0.000000
     3  H    1.098391   1.739541   0.000000
     4  C    1.514844   2.160770   2.140420   0.000000
     5  C    2.548946   3.439921   2.639967   1.507468   0.000000
     6  H    2.809610   3.626040   2.470045   2.148428   1.094889
     7  H    3.501540   4.282300   3.686052   2.173061   1.095120
     8  H    2.820856   3.865972   2.898972   2.150822   1.094555
     9  C    2.534064   2.711843   3.326582   1.347751   2.480583
    10  H    3.506648   3.774853   4.183362   2.099571   2.656584
    11  C    3.117271   2.782342   4.052222   2.551612   3.914514
    12  H    3.940980   3.709069   4.949630   3.279062   4.514380
    13  H    3.775182   3.265924   4.554332   3.210841   4.486921
    14  H    2.749460   2.175751   3.728239   2.757007   4.251257
    15  C    4.766486   4.863989   4.598477   6.197126   6.760956
    16  H    5.596176   5.785315   5.478588   6.952066   7.431542
    17  H    4.898244   4.765006   4.882351   6.363331   7.143155
    18  H    5.142731   5.217583   4.753799   6.596774   7.064022
    19  C    3.497106   3.836269   3.373045   4.836982   5.312232
    20  C    3.976369   4.623397   3.616730   5.070493   5.106748
    21  H    4.861435   5.532185   4.620998   5.862158   5.839514
    22  H    4.498370   5.081126   3.895612   5.626882   5.564359
    23  H    3.461000   4.304476   3.096584   4.315755   4.147213
    24  C    2.509475   2.723470   2.756198   3.861174   4.637008
    25  H    2.947668   2.748421   3.343333   4.310392   5.332326
    26  C    1.532006   2.167577   2.167777   2.529411   3.316677
    27  H    2.165940   2.527994   3.074850   2.775268   3.763325
    28  H    2.174250   3.078796   2.543786   2.763068   3.048765
                    6          7          8          9         10
     6  H    0.000000
     7  H    1.766974   0.000000
     8  H    1.777481   1.766286   0.000000
     9  C    3.191272   2.611126   3.200833   0.000000
    10  H    3.405945   2.315741   3.420722   1.089741   0.000000
    11  C    4.550596   4.104785   4.549922   1.495911   2.178582
    12  H    5.301977   4.553037   5.024305   2.127561   2.462907
    13  H    4.952879   4.588745   5.281466   2.132271   2.568276
    14  H    4.819261   4.683687   4.756098   2.175605   3.097960
    15  C    6.782538   7.827609   6.387603   7.169435   8.167831
    16  H    7.517073   8.473789   6.927262   7.926537   8.891252
    17  H    7.220680   8.189053   6.880721   7.179652   8.226466
    18  H    6.915149   8.154856   6.751566   7.641646   8.633569
    19  C    5.405536   6.367161   4.892291   5.881558   6.828284
    20  C    5.100165   6.134962   4.487564   6.282069   7.090454
    21  H    5.934435   6.805786   5.080740   7.027633   7.794600
    22  H    5.343835   6.608663   5.034920   6.894982   7.698784
    23  H    4.170564   5.140463   3.456925   5.575431   6.287194
    24  C    4.894027   5.644961   4.374417   4.743278   5.738549
    25  H    5.613641   6.293986   5.212371   4.959129   6.013221
    26  C    3.794009   4.251405   3.075272   3.428227   4.349410
    27  H    4.451122   4.517810   3.558168   3.270617   4.163281
    28  H    3.575303   3.955737   2.466261   3.799874   4.539215
                   11         12         13         14         15
    11  C    0.000000
    12  H    1.094864   0.000000
    13  H    1.094127   1.772345   0.000000
    14  H    1.092218   1.761556   1.774012   0.000000
    15  C    7.292915   7.883463   7.979088   6.419097   0.000000
    16  H    8.073506   8.572233   8.831860   7.211082   1.094957
    17  H    7.077170   7.640041   7.710960   6.110844   1.095147
    18  H    7.833250   8.527306   8.427158   6.986590   1.094937
    19  C    6.193686   6.781697   6.952731   5.442446   1.506553
    20  C    6.906266   7.495253   7.692283   6.332614   2.528828
    21  H    7.638762   8.118856   8.497229   7.063129   2.842120
    22  H    7.557733   8.245589   8.247946   6.988832   2.733814
    23  H    6.384306   6.964669   7.184325   5.962084   3.486885
    24  C    4.908166   5.472456   5.690526   4.121237   2.480759
    25  H    4.792094   5.328487   5.499978   3.845228   2.656117
    26  C    3.848247   4.370614   4.736293   3.306039   3.924317
    27  H    3.413917   3.701058   4.413084   2.847904   4.521784
    28  H    4.515166   4.946872   5.444015   4.163391   4.235821
                   16         17         18         19         20
    16  H    0.000000
    17  H    1.767890   0.000000
    18  H    1.778054   1.768045   0.000000
    19  C    2.146676   2.173245   2.147672   0.000000
    20  C    2.788283   3.484266   2.795009   1.503829   0.000000
    21  H    2.662693   3.829285   3.240054   2.142846   1.094785
    22  H    3.059950   3.754932   2.550887   2.142789   1.095443
    23  H    3.822912   4.333712   3.763819   2.181691   1.092397
    24  C    3.199767   2.613583   3.190369   1.347343   2.530824
    25  H    3.423564   2.317559   3.402110   2.098413   3.499954
    26  C    4.555210   4.116656   4.561040   2.561261   3.131524
    27  H    5.053054   4.532740   5.302107   3.305914   4.011917
    28  H    4.696453   4.658975   4.849416   2.753640   2.786616
                   21         22         23         24         25
    21  H    0.000000
    22  H    1.775638   0.000000
    23  H    1.769352   1.756219   0.000000
    24  C    3.198989   3.267616   2.716956   0.000000
    25  H    4.101785   4.141170   3.796160   1.090191   0.000000
    26  C    3.795356   3.948711   2.747620   1.505573   2.187476
    27  H    4.500716   4.919229   3.677915   2.117591   2.404154
    28  H    3.307098   3.679588   2.132013   2.160689   3.070856
                   26         27         28
    26  C    0.000000
    27  H    1.097748   0.000000
    28  H    1.094569   1.745387   0.000000
 Stoichiometry    C10H18
 Framework group  C1[X(C10H18)]
 Deg. of freedom    78
 Full point group                 C1      NOp   1
 Largest Abelian subgroup         C1      NOp   1
 Largest concise Abelian subgroup C1      NOp   1
                         Standard orientation:                         
 ---------------------------------------------------------------------
 Center     Atomic      Atomic             Coordinates (Angstroms)
 Number     Number       Type             X           Y           Z
 ---------------------------------------------------------------------
      1          6           0        0.745822   -0.045532    0.580329
      2          1           0        0.871510   -1.012078    1.082670
      3          1           0        0.286549    0.606526    1.335546
      4          6           0        2.090189    0.530303    0.185559
      5          6           0        2.144051    2.035382    0.120029
      6          1           0        1.893307    2.466997    1.094513
      7          1           0        3.137175    2.403108   -0.158845
      8          1           0        1.432542    2.412441   -0.621342
      9          6           0        3.189382   -0.206032   -0.071388
     10          1           0        4.114898    0.310456   -0.324756
     11          6           0        3.306948   -1.697311   -0.075139
     12          1           0        3.755058   -2.025080   -1.018798
     13          1           0        3.959022   -2.020697    0.741767
     14          1           0        2.347634   -2.209918    0.024310
     15          6           0       -3.933081   -0.920074    0.330451
     16          1           0       -4.707390   -0.789527   -0.432657
     17          1           0       -3.745709   -1.994186    0.433023
     18          1           0       -4.322215   -0.557781    1.287637
     19          6           0       -2.691933   -0.156332   -0.051585
     20          6           0       -2.901874    1.323924   -0.213659
     21          1           0       -3.548629    1.520175   -1.074907
     22          1           0       -3.383915    1.735109    0.679961
     23          1           0       -1.972916    1.880932   -0.355472
     24          6           0       -1.515346   -0.793291   -0.210520
     25          1           0       -1.481928   -1.870744   -0.047748
     26          6           0       -0.194744   -0.197010   -0.619434
     27          1           0        0.258308   -0.862964   -1.365289
     28          1           0       -0.329792    0.763061   -1.127475
 ---------------------------------------------------------------------
 Rotational constants (GHZ):           2.4778910           0.5324340           0.4581628
 Leave Link  202 at Fri Sep 17 13:32:36 2021, MaxMem=   524288000 cpu:               0.1 elap:               0.2
 (Enter /opt/gaussian/g16_legacy/l301.exe)
 Standard basis: 6-31G(d,p) (6D, 7F)
 Ernie: Thresh=  0.10000D-02 Tol=  0.10000D-05 Strict=F.
 There are   240 symmetry adapted cartesian basis functions of A   symmetry.
 There are   240 symmetry adapted basis functions of A   symmetry.
   240 basis functions,   406 primitive gaussians,   240 cartesian basis functions
    39 alpha electrons       39 beta electrons
       nuclear repulsion energy       513.2780396201 Hartrees.
 IExCor=    0 DFT=F Ex=HF Corr=None ExCW=0 ScaHFX=  1.000000
 ScaDFX=  1.000000  1.000000  1.000000  1.000000 ScalE2=  1.000000  1.000000
 IRadAn=      5 IRanWt=     -1 IRanGd=            0 ICorTp=0 IEmpDi=  4
 NAtoms=   28 NActive=   28 NUniq=   28 SFac= 1.00D+00 NAtFMM=   60 NAOKFM=F Big=F
 Integral buffers will be    131072 words long.
 Raffenetti 1 integral format.
 Two-electron integral symmetry is turned on.
 Leave Link  301 at Fri Sep 17 13:32:37 2021, MaxMem=   524288000 cpu:               0.1 elap:               0.5
 (Enter /opt/gaussian/g16_legacy/l302.exe)
 NPDir=0 NMtPBC=     1 NCelOv=     1 NCel=       1 NClECP=     1 NCelD=      1
         NCelK=      1 NCelE2=     1 NClLst=     1 CellRange=     0.0.
 One-electron integrals computed using PRISM.
 One-electron integral symmetry used in STVInt
 NBasis=   240 RedAO= T EigKep=  2.09D-03  NBF=   240
 NBsUse=   240 1.00D-06 EigRej= -1.00D+00 NBFU=   240
 Leave Link  302 at Fri Sep 17 13:32:38 2021, MaxMem=   524288000 cpu:               0.3 elap:               0.8
 (Enter /opt/gaussian/g16_legacy/l303.exe)
 DipDrv:  MaxL=1.
 Leave Link  303 at Fri Sep 17 13:32:38 2021, MaxMem=   524288000 cpu:               0.1 elap:               0.3
 (Enter /opt/gaussian/g16_legacy/l401.exe)
 ExpMin= 1.61D-01 ExpMax= 3.05D+03 ExpMxC= 4.57D+02 IAcc=3 IRadAn=         5 AccDes= 0.00D+00
 Harris functional with IExCor=  205 and IRadAn=       5 diagonalized for initial guess.
 HarFok:  IExCor=  205 AccDes= 0.00D+00 IRadAn=         5 IDoV= 1 UseB2=F ITyADJ=14
 ICtDFT=  3500011 ScaDFX=  1.000000  1.000000  1.000000  1.000000
 FoFCou: FMM=F IPFlag=           0 FMFlag=      100000 FMFlg1=           0
         NFxFlg=           0 DoJE=T BraDBF=F KetDBF=T FulRan=T
         wScrn=  0.000000 ICntrl=       500 IOpCl=  0 I1Cent=   200000004 NGrid=           0
         NMat0=    1 NMatS0=      1 NMatT0=    0 NMatD0=    1 NMtDS0=    0 NMtDT0=    0
 Petite list used in FoFCou.
 Harris En= -390.110064882006    
 JPrj=0 DoOrth=F DoCkMO=F.
 Leave Link  401 at Fri Sep 17 13:32:50 2021, MaxMem=   524288000 cpu:              11.0 elap:              11.4
 (Enter /opt/gaussian/g16_legacy/l502.exe)
 Keep R1 ints in memory in canonical form, NReq=425198025.
 FoFCou: FMM=F IPFlag=           0 FMFlag=           0 FMFlg1=           0
         NFxFlg=           0 DoJE=F BraDBF=F KetDBF=F FulRan=T
         wScrn=  0.000000 ICntrl=       600 IOpCl=  0 I1Cent=           0 NGrid=           0
         NMat0=    1 NMatS0=  28920 NMatT0=    0 NMatD0=    1 NMtDS0=    0 NMtDT0=    0
 Symmetry not used in FoFCou.
 Two-electron integral symmetry not used.
 Closed shell SCF:
 Using DIIS extrapolation, IDIIS=  1040.
 NGot=   524288000 LenX=   105970886 LenY=   105912845
 Requested convergence on RMS density matrix=1.00D-08 within 128 cycles.
 Requested convergence on MAX density matrix=1.00D-06.
 Requested convergence on             energy=1.00D-06.
 No special actions if energy rises.

 Cycle   1  Pass 1  IDiag  1:
 E= -388.532777308235    
 DIIS: error= 5.02D-02 at cycle   1 NSaved=   1.
 NSaved= 1 IEnMin= 1 EnMin= -388.532777308235     IErMin= 1 ErrMin= 5.02D-02
 ErrMax= 5.02D-02  0.00D+00 EMaxC= 1.00D-01 BMatC= 8.07D-01 BMatP= 8.07D-01
 IDIUse=3 WtCom= 4.98D-01 WtEn= 5.02D-01
 Coeff-Com:  0.100D+01
 Coeff-En:   0.100D+01
 Coeff:      0.100D+01
 Gap=     0.508 Goal=   None    Shift=    0.000
 GapD=    0.508 DampG=2.000 DampE=0.500 DampFc=1.0000 IDamp=-1.
 RMSDP=3.99D-03 MaxDP=1.15D-01              OVMax= 1.40D-01

 Cycle   2  Pass 1  IDiag  1:
 E= -389.074235690699     Delta-E=       -0.541458382464 Rises=F Damp=F
 DIIS: error= 1.46D-02 at cycle   2 NSaved=   2.
 NSaved= 2 IEnMin= 2 EnMin= -389.074235690699     IErMin= 2 ErrMin= 1.46D-02
 ErrMax= 1.46D-02  0.00D+00 EMaxC= 1.00D-01 BMatC= 8.63D-02 BMatP= 8.07D-01
 IDIUse=3 WtCom= 8.54D-01 WtEn= 1.46D-01
 Coeff-Com:  0.183D+00 0.817D+00
 Coeff-En:   0.000D+00 0.100D+01
 Coeff:      0.156D+00 0.844D+00
 Gap=     0.552 Goal=   None    Shift=    0.000
 RMSDP=1.62D-03 MaxDP=3.04D-02 DE=-5.41D-01 OVMax= 4.55D-02

 Cycle   3  Pass 1  IDiag  1:
 E= -389.151654983865     Delta-E=       -0.077419293165 Rises=F Damp=F
 DIIS: error= 2.67D-03 at cycle   3 NSaved=   3.
 NSaved= 3 IEnMin= 3 EnMin= -389.151654983865     IErMin= 3 ErrMin= 2.67D-03
 ErrMax= 2.67D-03  0.00D+00 EMaxC= 1.00D-01 BMatC= 3.02D-03 BMatP= 8.63D-02
 IDIUse=3 WtCom= 9.73D-01 WtEn= 2.67D-02
 Coeff-Com: -0.245D-01 0.102D+00 0.922D+00
 Coeff-En:   0.000D+00 0.000D+00 0.100D+01
 Coeff:     -0.239D-01 0.997D-01 0.924D+00
 Gap=     0.499 Goal=   None    Shift=    0.000
 RMSDP=2.54D-04 MaxDP=6.76D-03 DE=-7.74D-02 OVMax= 9.70D-03

 Cycle   4  Pass 1  IDiag  1:
 E= -389.155148990477     Delta-E=       -0.003494006613 Rises=F Damp=F
 DIIS: error= 4.95D-04 at cycle   4 NSaved=   4.
 NSaved= 4 IEnMin= 4 EnMin= -389.155148990477     IErMin= 4 ErrMin= 4.95D-04
 ErrMax= 4.95D-04  0.00D+00 EMaxC= 1.00D-01 BMatC= 9.59D-05 BMatP= 3.02D-03
 IDIUse=3 WtCom= 9.95D-01 WtEn= 4.95D-03
 Coeff-Com: -0.442D-02-0.835D-03 0.102D+00 0.903D+00
 Coeff-En:   0.000D+00 0.000D+00 0.000D+00 0.100D+01
 Coeff:     -0.440D-02-0.831D-03 0.102D+00 0.903D+00
 Gap=     0.500 Goal=   None    Shift=    0.000
 RMSDP=7.33D-05 MaxDP=1.75D-03 DE=-3.49D-03 OVMax= 3.51D-03

 Cycle   5  Pass 1  IDiag  1:
 E= -389.155274221240     Delta-E=       -0.000125230762 Rises=F Damp=F
 DIIS: error= 1.73D-04 at cycle   5 NSaved=   5.
 NSaved= 5 IEnMin= 5 EnMin= -389.155274221240     IErMin= 5 ErrMin= 1.73D-04
 ErrMax= 1.73D-04  0.00D+00 EMaxC= 1.00D-01 BMatC= 1.79D-05 BMatP= 9.59D-05
 IDIUse=3 WtCom= 9.98D-01 WtEn= 1.73D-03
 Coeff-Com:  0.248D-02-0.153D-01-0.106D+00 0.196D+00 0.922D+00
 Coeff-En:   0.000D+00 0.000D+00 0.000D+00 0.000D+00 0.100D+01
 Coeff:      0.247D-02-0.153D-01-0.105D+00 0.196D+00 0.923D+00
 Gap=     0.500 Goal=   None    Shift=    0.000
 RMSDP=3.09D-05 MaxDP=7.46D-04 DE=-1.25D-04 OVMax= 1.02D-03

 Cycle   6  Pass 1  IDiag  1:
 E= -389.155297837997     Delta-E=       -0.000023616757 Rises=F Damp=F
 DIIS: error= 3.74D-05 at cycle   6 NSaved=   6.
 NSaved= 6 IEnMin= 6 EnMin= -389.155297837997     IErMin= 6 ErrMin= 3.74D-05
 ErrMax= 3.74D-05  0.00D+00 EMaxC= 1.00D-01 BMatC= 5.50D-07 BMatP= 1.79D-05
 IDIUse=1 WtCom= 1.00D+00 WtEn= 0.00D+00
 Coeff-Com:  0.724D-03-0.330D-02-0.263D-01-0.272D-02 0.163D+00 0.868D+00
 Coeff:      0.724D-03-0.330D-02-0.263D-01-0.272D-02 0.163D+00 0.868D+00
 Gap=     0.500 Goal=   None    Shift=    0.000
 RMSDP=5.42D-06 MaxDP=1.67D-04 DE=-2.36D-05 OVMax= 3.13D-04

 Cycle   7  Pass 1  IDiag  1:
 E= -389.155298691397     Delta-E=       -0.000000853400 Rises=F Damp=F
 DIIS: error= 9.12D-06 at cycle   7 NSaved=   7.
 NSaved= 7 IEnMin= 7 EnMin= -389.155298691397     IErMin= 7 ErrMin= 9.12D-06
 ErrMax= 9.12D-06  0.00D+00 EMaxC= 1.00D-01 BMatC= 4.91D-08 BMatP= 5.50D-07
 IDIUse=1 WtCom= 1.00D+00 WtEn= 0.00D+00
 Coeff-Com: -0.555D-04 0.478D-03 0.325D-02-0.106D-01-0.462D-01 0.126D+00
 Coeff-Com:  0.927D+00
 Coeff:     -0.555D-04 0.478D-03 0.325D-02-0.106D-01-0.462D-01 0.126D+00
 Coeff:      0.927D+00
 Gap=     0.500 Goal=   None    Shift=    0.000
 RMSDP=1.70D-06 MaxDP=4.71D-05 DE=-8.53D-07 OVMax= 8.67D-05

 Cycle   8  Pass 1  IDiag  1:
 E= -389.155298776547     Delta-E=       -0.000000085150 Rises=F Damp=F
 DIIS: error= 2.98D-06 at cycle   8 NSaved=   8.
 NSaved= 8 IEnMin= 8 EnMin= -389.155298776547     IErMin= 8 ErrMin= 2.98D-06
 ErrMax= 2.98D-06  0.00D+00 EMaxC= 1.00D-01 BMatC= 4.91D-09 BMatP= 4.91D-08
 IDIUse=1 WtCom= 1.00D+00 WtEn= 0.00D+00
 Coeff-Com: -0.553D-04 0.226D-03 0.195D-02 0.331D-02-0.143D-01-0.848D-01
 Coeff-Com: -0.129D+00 0.122D+01
 Coeff:     -0.553D-04 0.226D-03 0.195D-02 0.331D-02-0.143D-01-0.848D-01
 Coeff:     -0.129D+00 0.122D+01
 Gap=     0.500 Goal=   None    Shift=    0.000
 RMSDP=7.76D-07 MaxDP=2.58D-05 DE=-8.52D-08 OVMax= 5.60D-05

 Cycle   9  Pass 1  IDiag  1:
 E= -389.155298791840     Delta-E=       -0.000000015293 Rises=F Damp=F
 DIIS: error= 1.35D-06 at cycle   9 NSaved=   9.
 NSaved= 9 IEnMin= 9 EnMin= -389.155298791840     IErMin= 9 ErrMin= 1.35D-06
 ErrMax= 1.35D-06  0.00D+00 EMaxC= 1.00D-01 BMatC= 6.52D-10 BMatP= 4.91D-09
 IDIUse=1 WtCom= 1.00D+00 WtEn= 0.00D+00
 Coeff-Com:  0.122D-04-0.777D-04-0.580D-03 0.123D-02 0.419D-02 0.523D-02
 Coeff-Com: -0.723D-01-0.196D+00 0.126D+01
 Coeff:      0.122D-04-0.777D-04-0.580D-03 0.123D-02 0.419D-02 0.523D-02
 Coeff:     -0.723D-01-0.196D+00 0.126D+01
 Gap=     0.500 Goal=   None    Shift=    0.000
 RMSDP=2.99D-07 MaxDP=1.28D-05 DE=-1.53D-08 OVMax= 2.62D-05

 Cycle  10  Pass 1  IDiag  1:
 E= -389.155298794059     Delta-E=       -0.000000002219 Rises=F Damp=F
 DIIS: error= 4.11D-07 at cycle  10 NSaved=  10.
 NSaved=10 IEnMin=10 EnMin= -389.155298794059     IErMin=10 ErrMin= 4.11D-07
 ErrMax= 4.11D-07  0.00D+00 EMaxC= 1.00D-01 BMatC= 8.49D-11 BMatP= 6.52D-10
 IDIUse=1 WtCom= 1.00D+00 WtEn= 0.00D+00
 Coeff-Com:  0.803D-05-0.368D-04-0.304D-03-0.200D-03 0.163D-02 0.134D-01
 Coeff-Com:  0.123D-01-0.192D+00 0.980D-01 0.107D+01
 Coeff:      0.803D-05-0.368D-04-0.304D-03-0.200D-03 0.163D-02 0.134D-01
 Coeff:      0.123D-01-0.192D+00 0.980D-01 0.107D+01
 Gap=     0.500 Goal=   None    Shift=    0.000
 RMSDP=1.08D-07 MaxDP=3.31D-06 DE=-2.22D-09 OVMax= 8.53D-06

 Cycle  11  Pass 1  IDiag  1:
 E= -389.155298794299     Delta-E=       -0.000000000240 Rises=F Damp=F
 DIIS: error= 1.55D-07 at cycle  11 NSaved=  11.
 NSaved=11 IEnMin=11 EnMin= -389.155298794299     IErMin=11 ErrMin= 1.55D-07
 ErrMax= 1.55D-07  0.00D+00 EMaxC= 1.00D-01 BMatC= 5.89D-12 BMatP= 8.49D-11
 IDIUse=1 WtCom= 1.00D+00 WtEn= 0.00D+00
 Coeff-Com: -0.510D-06 0.459D-05 0.337D-04-0.107D-03-0.456D-03 0.983D-03
 Coeff-Com:  0.873D-02 0.496D-02-0.108D+00 0.924D-01 0.100D+01
 Coeff:     -0.510D-06 0.459D-05 0.337D-04-0.107D-03-0.456D-03 0.983D-03
 Coeff:      0.873D-02 0.496D-02-0.108D+00 0.924D-01 0.100D+01
 Gap=     0.500 Goal=   None    Shift=    0.000
 RMSDP=2.30D-08 MaxDP=1.01D-06 DE=-2.40D-10 OVMax= 2.02D-06

 Cycle  12  Pass 1  IDiag  1:
 E= -389.155298794298     Delta-E=        0.000000000000 Rises=F Damp=F
 DIIS: error= 4.41D-08 at cycle  12 NSaved=  12.
 NSaved=12 IEnMin=11 EnMin= -389.155298794299     IErMin=12 ErrMin= 4.41D-08
 ErrMax= 4.41D-08  0.00D+00 EMaxC= 1.00D-01 BMatC= 9.45D-13 BMatP= 5.89D-12
 IDIUse=1 WtCom= 1.00D+00 WtEn= 0.00D+00
 Coeff-Com: -0.945D-06 0.495D-05 0.398D-04 0.175D-05-0.291D-03-0.124D-02
 Coeff-Com:  0.338D-03 0.206D-01-0.365D-01-0.106D+00 0.192D+00 0.931D+00
 Coeff:     -0.945D-06 0.495D-05 0.398D-04 0.175D-05-0.291D-03-0.124D-02
 Coeff:      0.338D-03 0.206D-01-0.365D-01-0.106D+00 0.192D+00 0.931D+00
 Gap=     0.500 Goal=   None    Shift=    0.000
 RMSDP=9.73D-09 MaxDP=2.60D-07 DE= 4.55D-13 OVMax= 6.37D-07

 SCF Done:  E(RHF) =  -389.155298794     A.U. after   12 cycles
            NFock= 12  Conv=0.97D-08     -V/T= 2.0014
 KE= 3.886245193785D+02 PE=-1.931190479465D+03 EE= 6.401326216716D+02
 Leave Link  502 at Fri Sep 17 13:33:27 2021, MaxMem=   524288000 cpu:              36.7 elap:              37.3
 (Enter /opt/gaussian/g16_legacy/l801.exe)
 ExpMin= 1.61D-01 ExpMax= 3.05D+03 ExpMxC= 4.57D+02 IAcc=3 IRadAn=         5 AccDes= 0.00D+00
 HarFok:  IExCor=  205 AccDes= 0.00D+00 IRadAn=         5 IDoV=-2 UseB2=F ITyADJ=14
 ICtDFT= 12500011 ScaDFX=  1.000000  1.000000  1.000000  1.000000
 Largest valence mixing into a core orbital is  1.97D-04
 Largest core mixing into a valence orbital is  3.52D-05
 Range of M.O.s used for correlation:    11   240
 NBasis=   240 NAE=    39 NBE=    39 NFC=    10 NFV=     0
 NROrb=    230 NOA=    29 NOB=    29 NVA=   201 NVB=   201
 Leave Link  801 at Fri Sep 17 13:33:29 2021, MaxMem=   524288000 cpu:               1.6 elap:               1.6
 (Enter /opt/gaussian/g16_legacy/l906.exe)
 Frozen-core derivative calculation, NFC=  10 NFV=   0.
 FulOut=F Deriv=T AODrv=T NAtomX=    28
   MMem=          89  MDisk=          29 MDiskD=          29
  W3Min=     2246400 MinDsk=     2795480 NBas6D=         240
 NBas2D=       29244    NTT=       28920    LW2=     2040000
    MDV=   523629461 MDiskM=       30186 NBas2p=       24099
 Fully direct method using O(ONN) memory.
 IMap=   1   2   3   4   5   6   7   8   9  10  11  12  13  14  15  16  17  18  19  20
 IMap=  21  22  23  24  25  26  27  28  29  30  31  32  33  34  35  36  37  38  39
 JobTyp=1 Pass  1:  I=  11 to  39 NPSUse=  1 ParTrn=F ParDer=F DoDerP=T.
 Spin components of T(2) and E(2):
     alpha-alpha T2 =       0.5711514926D-01 E2=     -0.1637339977D+00
     alpha-beta  T2 =       0.3617423000D+00 E2=     -0.1089191159D+01
     beta-beta   T2 =       0.5711514926D-01 E2=     -0.1637339977D+00
 The integrals were generated   1 times.
 ANorm=    0.1214896127D+01
 E2 =    -0.1416659154D+01 EUMP2 =    -0.39057195794867D+03
 Leave Link  906 at Fri Sep 17 13:38:02 2021, MaxMem=   524288000 cpu:             272.9 elap:             273.2
 (Enter /opt/gaussian/g16_legacy/l1002.exe)
 Minotr:  Closed shell wavefunction.
          Computing MP2/KS-MP2 derivatives.
          Using Z-Vector for PSCF gradient.
          Skipping F1 and S1 gradient terms here.
          IDoAtm=1111111111111111111111111111
          Frozen-core window.
          Direct CPHF calculation.
          Differentiating once with respect to electric field.
                with respect to dipole field.
          Differentiating once with respect to nuclear coordinates.
          Requested convergence is 1.0D-10 RMS, and 1.0D-09 maximum.
          NewPWx=F KeepS1=T KeepF1=T KeepIn=T MapXYZ=F SortEE=F KeepMc=T.
 Keep R1 ints in memory in canonical form, NReq=425201067.
 FoFCou: FMM=F IPFlag=           0 FMFlag=           0 FMFlg1=           0
         NFxFlg=           0 DoJE=F BraDBF=F KetDBF=F FulRan=T
         wScrn=  0.000000 ICntrl=       600 IOpCl=  0 I1Cent=           0 NGrid=           0
         NMat0=    1 NMatS0=  28920 NMatT0=    0 NMatD0=    1 NMtDS0=    0 NMtDT0=    0
 Symmetry not used in FoFCou.
 Two-electron integral symmetry not used.
          MDV=     524288000 using IRadAn=       5.
          Solving linear equations separately, MaxMat=       0.
          There are     1 degrees of freedom in the 1st order CPHF.  IDoFFX=0 NUNeed=     1.
 LinEq1:  Iter=  0 NonCon=     1 RMS=2.55D-03 Max=4.26D-02 NDo=     1
 AX will form     1 AO Fock derivatives at one time.
 LinEq1:  Iter=  1 NonCon=     1 RMS=6.89D-04 Max=1.12D-02 NDo=     1
 LinEq1:  Iter=  2 NonCon=     1 RMS=1.61D-04 Max=4.12D-03 NDo=     1
 LinEq1:  Iter=  3 NonCon=     1 RMS=4.42D-05 Max=5.11D-04 NDo=     1
 LinEq1:  Iter=  4 NonCon=     1 RMS=1.99D-05 Max=8.26D-04 NDo=     1
 LinEq1:  Iter=  5 NonCon=     1 RMS=4.81D-06 Max=8.80D-05 NDo=     1
 LinEq1:  Iter=  6 NonCon=     1 RMS=1.45D-06 Max=2.33D-05 NDo=     1
 LinEq1:  Iter=  7 NonCon=     1 RMS=4.00D-07 Max=4.14D-06 NDo=     1
 LinEq1:  Iter=  8 NonCon=     1 RMS=8.45D-08 Max=1.47D-06 NDo=     1
 LinEq1:  Iter=  9 NonCon=     1 RMS=2.22D-08 Max=5.48D-07 NDo=     1
 LinEq1:  Iter= 10 NonCon=     1 RMS=7.41D-09 Max=1.95D-07 NDo=     1
 LinEq1:  Iter= 11 NonCon=     1 RMS=2.37D-09 Max=7.30D-08 NDo=     1
 LinEq1:  Iter= 12 NonCon=     1 RMS=8.60D-10 Max=1.37D-08 NDo=     1
 LinEq1:  Iter= 13 NonCon=     1 RMS=2.39D-10 Max=3.41D-09 NDo=     1
 LinEq1:  Iter= 14 NonCon=     0 RMS=5.52D-11 Max=6.92D-10 NDo=     1
 Linear equations converged to 1.000D-10 1.000D-09 after    14 iterations.
 End of Minotr F.D. properties file   721 does not exist.
 End of Minotr F.D. properties file   722 does not exist.
 End of Minotr F.D. properties file   788 does not exist.
 Leave Link 1002 at Fri Sep 17 13:38:39 2021, MaxMem=   524288000 cpu:              37.0 elap:              37.1
 (Enter /opt/gaussian/g16_legacy/l601.exe)
 Copying SCF densities to generalized density rwf, IOpCl= 0 IROHF=0.

 **********************************************************************

            Population analysis using the SCF density.

 **********************************************************************

 Orbital symmetries:
       Occupied  (A) (A) (A) (A) (A) (A) (A) (A) (A) (A) (A) (A)
                 (A) (A) (A) (A) (A) (A) (A) (A) (A) (A) (A) (A)
                 (A) (A) (A) (A) (A) (A) (A) (A) (A) (A) (A) (A)
                 (A) (A) (A)
       Virtual   (A) (A) (A) (A) (A) (A) (A) (A) (A) (A) (A) (A)
                 (A) (A) (A) (A) (A) (A) (A) (A) (A) (A) (A) (A)
                 (A) (A) (A) (A) (A) (A) (A) (A) (A) (A) (A) (A)
                 (A) (A) (A) (A) (A) (A) (A) (A) (A) (A) (A) (A)
                 (A) (A) (A) (A) (A) (A) (A) (A) (A) (A) (A) (A)
                 (A) (A) (A) (A) (A) (A) (A) (A) (A) (A) (A) (A)
                 (A) (A) (A) (A) (A) (A) (A) (A) (A) (A) (A) (A)
                 (A) (A) (A) (A) (A) (A) (A) (A) (A) (A) (A) (A)
                 (A) (A) (A) (A) (A) (A) (A) (A) (A) (A) (A) (A)
                 (A) (A) (A) (A) (A) (A) (A) (A) (A) (A) (A) (A)
                 (A) (A) (A) (A) (A) (A) (A) (A) (A) (A) (A) (A)
                 (A) (A) (A) (A) (A) (A) (A) (A) (A) (A) (A) (A)
                 (A) (A) (A) (A) (A) (A) (A) (A) (A) (A) (A) (A)
                 (A) (A) (A) (A) (A) (A) (A) (A) (A) (A) (A) (A)
                 (A) (A) (A) (A) (A) (A) (A) (A) (A) (A) (A) (A)
                 (A) (A) (A) (A) (A) (A) (A) (A) (A) (A) (A) (A)
                 (A) (A) (A) (A) (A) (A) (A) (A) (A)
 The electronic state is 1-A.
 Alpha  occ. eigenvalues --  -11.23059 -11.22491 -11.21994 -11.21919 -11.21894
 Alpha  occ. eigenvalues --  -11.21651 -11.21538 -11.21499 -11.21456 -11.21435
 Alpha  occ. eigenvalues --   -1.10615  -1.08328  -1.01892  -0.98025  -0.93646
 Alpha  occ. eigenvalues --   -0.91774  -0.86739  -0.82690  -0.70608  -0.69412
 Alpha  occ. eigenvalues --   -0.64401  -0.61335  -0.60397  -0.59007  -0.58078
 Alpha  occ. eigenvalues --   -0.56878  -0.55469  -0.55041  -0.53553  -0.51979
 Alpha  occ. eigenvalues --   -0.51779  -0.51259  -0.50451  -0.49765  -0.47237
 Alpha  occ. eigenvalues --   -0.46642  -0.44231  -0.33255  -0.31613
 Alpha virt. eigenvalues --    0.18420   0.19608   0.22268   0.24509   0.24867
 Alpha virt. eigenvalues --    0.27279   0.28582   0.29021   0.30342   0.30570
 Alpha virt. eigenvalues --    0.31452   0.32295   0.32993   0.33605   0.33919
 Alpha virt. eigenvalues --    0.34861   0.36107   0.37174   0.38359   0.39994
 Alpha virt. eigenvalues --    0.40807   0.41938   0.42663   0.44321   0.45309
 Alpha virt. eigenvalues --    0.51884   0.54069   0.61043   0.62386   0.69420
 Alpha virt. eigenvalues --    0.71418   0.71712   0.74323   0.75991   0.76600
 Alpha virt. eigenvalues --    0.77889   0.78837   0.80149   0.80438   0.82525
 Alpha virt. eigenvalues --    0.82864   0.85807   0.89230   0.90313   0.92128
 Alpha virt. eigenvalues --    0.93067   0.94944   0.96558   0.97593   0.99408
 Alpha virt. eigenvalues --    0.99665   1.01111   1.02715   1.04774   1.06344
 Alpha virt. eigenvalues --    1.07247   1.08350   1.08464   1.10883   1.12201
 Alpha virt. eigenvalues --    1.13082   1.13493   1.14141   1.15109   1.15428
 Alpha virt. eigenvalues --    1.15972   1.16404   1.17990   1.18283   1.20093
 Alpha virt. eigenvalues --    1.20923   1.22026   1.22904   1.24887   1.26883
 Alpha virt. eigenvalues --    1.29778   1.39910   1.40850   1.44075   1.45168
 Alpha virt. eigenvalues --    1.46115   1.53924   1.55257   1.57489   1.59006
 Alpha virt. eigenvalues --    1.61319   1.62899   1.65441   1.68691   1.70718
 Alpha virt. eigenvalues --    1.74996   1.83306   1.90942   1.92635   1.95890
 Alpha virt. eigenvalues --    1.98115   2.01342   2.02512   2.04962   2.08419
 Alpha virt. eigenvalues --    2.09277   2.11238   2.11880   2.13547   2.13759
 Alpha virt. eigenvalues --    2.15744   2.17934   2.19185   2.23538   2.27676
 Alpha virt. eigenvalues --    2.27931   2.30155   2.32120   2.34931   2.35556
 Alpha virt. eigenvalues --    2.35641   2.35787   2.39414   2.39796   2.40226
 Alpha virt. eigenvalues --    2.41254   2.41845   2.42901   2.44985   2.45574
 Alpha virt. eigenvalues --    2.47186   2.49012   2.49666   2.49766   2.53203
 Alpha virt. eigenvalues --    2.56185   2.58402   2.60483   2.62609   2.64595
 Alpha virt. eigenvalues --    2.66045   2.67902   2.71570   2.72559   2.74074
 Alpha virt. eigenvalues --    2.76098   2.77694   2.81001   2.82553   2.84078
 Alpha virt. eigenvalues --    2.86960   2.90351   2.92350   2.93718   2.93885
 Alpha virt. eigenvalues --    2.97258   2.98945   3.00899   3.02345   3.04612
 Alpha virt. eigenvalues --    3.06569   3.07048   3.09532   3.11568   3.16240
 Alpha virt. eigenvalues --    3.17174   3.17504   3.19750   3.20511   3.20975
 Alpha virt. eigenvalues --    3.22293   3.25236   3.26472   3.27441   3.37021
 Alpha virt. eigenvalues --    3.39006   3.44380   3.45749   3.55482   3.57318
 Alpha virt. eigenvalues --    3.58498   3.60438   3.67986   3.73333   3.78353
 Alpha virt. eigenvalues --    3.78760   3.80292   3.81202   3.82240   3.82862
 Alpha virt. eigenvalues --    3.83544   3.85739   3.87949   3.89118   3.90865
 Alpha virt. eigenvalues --    3.96054   4.59177   4.62295   4.74495   4.82467
 Alpha virt. eigenvalues --    4.89198   4.92416   4.93233   5.07345   5.10306
 Alpha virt. eigenvalues --    5.16931
          Condensed to atoms (all electrons):
               1          2          3          4          5          6
     1  C    5.000746   0.414394   0.412397   0.339583  -0.058815  -0.003455
     2  H    0.414394   0.576703  -0.030335  -0.040663   0.003304  -0.000014
     3  H    0.412397  -0.030335   0.583799  -0.045110  -0.004632   0.002507
     4  C    0.339583  -0.040663  -0.045110   4.957284   0.350747  -0.043196
     5  C   -0.058815   0.003304  -0.004632   0.350747   4.895125   0.397612
     6  H   -0.003455  -0.000014   0.002507  -0.043196   0.397612   0.593333
     7  H    0.003653  -0.000107   0.000093  -0.041417   0.406594  -0.027587
     8  H   -0.000424  -0.000036  -0.000305  -0.046045   0.399656  -0.035176
     9  C   -0.043515  -0.002303   0.001832   0.696638  -0.045816  -0.000479
    10  H    0.003081   0.000055  -0.000112  -0.036447  -0.006439   0.000245
    11  C   -0.007011  -0.002043   0.000131  -0.050643   0.003399  -0.000113
    12  H    0.000233  -0.000035  -0.000010   0.000511  -0.000102  -0.000004
    13  H    0.000216   0.000157   0.000029  -0.001298  -0.000114   0.000021
    14  H   -0.002039  -0.001243   0.000011  -0.000450   0.000090  -0.000001
    15  C   -0.000105  -0.000001  -0.000032   0.000001  -0.000000   0.000000
    16  H   -0.000004   0.000000   0.000001   0.000000  -0.000000  -0.000000
    17  H   -0.000002   0.000002  -0.000002   0.000000  -0.000000  -0.000000
    18  H    0.000021  -0.000001  -0.000005  -0.000000   0.000000  -0.000000
    19  C   -0.002759   0.000602   0.000933  -0.000035   0.000007  -0.000001
    20  C    0.000487  -0.000011   0.000129  -0.000018  -0.000017  -0.000002
    21  H   -0.000041  -0.000000   0.000012   0.000001  -0.000000   0.000000
    22  H    0.000071  -0.000000  -0.000066  -0.000002   0.000000   0.000000
    23  H    0.000080  -0.000011   0.000148  -0.000063   0.000095   0.000005
    24  C   -0.062586  -0.001372  -0.000488   0.006103  -0.000075   0.000000
    25  H   -0.000349   0.001131   0.000186  -0.000118  -0.000002   0.000000
    26  C    0.325368  -0.041384  -0.042900  -0.056896  -0.000803   0.000024
    27  H   -0.045282  -0.002680   0.004395  -0.001369   0.000304   0.000006
    28  H   -0.040021   0.004046  -0.002359  -0.002268  -0.000487   0.000076
               7          8          9         10         11         12
     1  C    0.003653  -0.000424  -0.043515   0.003081  -0.007011   0.000233
     2  H   -0.000107  -0.000036  -0.002303   0.000055  -0.002043  -0.000035
     3  H    0.000093  -0.000305   0.001832  -0.000112   0.000131  -0.000010
     4  C   -0.041417  -0.046045   0.696638  -0.036447  -0.050643   0.000511
     5  C    0.406594   0.399656  -0.045816  -0.006439   0.003399  -0.000102
     6  H   -0.027587  -0.035176  -0.000479   0.000245  -0.000113  -0.000004
     7  H    0.570210  -0.028120  -0.002763   0.002176   0.000140  -0.000008
     8  H   -0.028120   0.598084  -0.000962   0.000130  -0.000102   0.000015
     9  C   -0.002763  -0.000962   4.940021   0.404563   0.338339  -0.042719
    10  H    0.002176   0.000130   0.404563   0.559869  -0.043628  -0.002623
    11  C    0.000140  -0.000102   0.338339  -0.043628   4.903476   0.402922
    12  H   -0.000008   0.000015  -0.042719  -0.002623   0.402922   0.585814
    13  H   -0.000004  -0.000005  -0.044540  -0.000245   0.400276  -0.033312
    14  H    0.000004   0.000001  -0.041992   0.003343   0.408030  -0.029450
    15  C    0.000000  -0.000000  -0.000000   0.000000   0.000000  -0.000000
    16  H    0.000000   0.000000  -0.000000   0.000000  -0.000000  -0.000000
    17  H   -0.000000  -0.000000   0.000000   0.000000  -0.000000   0.000000
    18  H   -0.000000   0.000000   0.000000  -0.000000  -0.000000   0.000000
    19  C   -0.000000   0.000017  -0.000002   0.000000   0.000000   0.000000
    20  C    0.000000  -0.000029  -0.000000  -0.000000  -0.000000  -0.000000
    21  H    0.000000  -0.000000   0.000000   0.000000   0.000000  -0.000000
    22  H   -0.000000  -0.000001   0.000000  -0.000000   0.000000   0.000000
    23  H   -0.000001   0.000222  -0.000001   0.000000  -0.000000   0.000000
    24  C    0.000002  -0.000082  -0.000010   0.000002  -0.000022  -0.000002
    25  H    0.000000  -0.000000   0.000009  -0.000000  -0.000002  -0.000000
    26  C   -0.000094   0.000832  -0.003332  -0.000120   0.000493   0.000079
    27  H   -0.000006   0.000016   0.000946  -0.000032   0.000106  -0.000059
    28  H   -0.000024  -0.000581   0.000498   0.000002  -0.000024   0.000000
              13         14         15         16         17         18
     1  C    0.000216  -0.002039  -0.000105  -0.000004  -0.000002   0.000021
     2  H    0.000157  -0.001243  -0.000001   0.000000   0.000002  -0.000001
     3  H    0.000029   0.000011  -0.000032   0.000001  -0.000002  -0.000005
     4  C   -0.001298  -0.000450   0.000001   0.000000   0.000000  -0.000000
     5  C   -0.000114   0.000090  -0.000000  -0.000000  -0.000000   0.000000
     6  H    0.000021  -0.000001   0.000000  -0.000000  -0.000000  -0.000000
     7  H   -0.000004   0.000004   0.000000   0.000000  -0.000000  -0.000000
     8  H   -0.000005   0.000001  -0.000000   0.000000  -0.000000   0.000000
     9  C   -0.044540  -0.041992  -0.000000  -0.000000   0.000000   0.000000
    10  H   -0.000245   0.003343   0.000000   0.000000   0.000000  -0.000000
    11  C    0.400276   0.408030   0.000000  -0.000000  -0.000000  -0.000000
    12  H   -0.033312  -0.029450  -0.000000  -0.000000   0.000000   0.000000
    13  H    0.585280  -0.027464   0.000000   0.000000  -0.000000  -0.000000
    14  H   -0.027464   0.575201  -0.000000   0.000000   0.000000  -0.000000
    15  C    0.000000  -0.000000   4.903471   0.399272   0.405368   0.396989
    16  H    0.000000   0.000000   0.399272   0.593089  -0.027567  -0.034888
    17  H   -0.000000   0.000000   0.405368  -0.027567   0.568082  -0.027357
    18  H   -0.000000  -0.000000   0.396989  -0.034888  -0.027357   0.594254
    19  C   -0.000000   0.000001   0.351810  -0.045803  -0.040403  -0.044205
    20  C    0.000000   0.000000  -0.065376  -0.001090   0.003697  -0.002146
    21  H    0.000000   0.000000  -0.001680   0.002542  -0.000080  -0.000367
    22  H   -0.000000  -0.000000  -0.003425  -0.000508   0.000012   0.002838
    23  H   -0.000000   0.000000   0.003707  -0.000024  -0.000109  -0.000072
    24  C    0.000002   0.000034  -0.044526  -0.001113  -0.002344  -0.000621
    25  H   -0.000000   0.000035  -0.006708   0.000153   0.002204   0.000224
    26  C   -0.000045  -0.000174   0.003141  -0.000123   0.000141  -0.000086
    27  H    0.000018   0.000114  -0.000098   0.000012  -0.000011  -0.000002
    28  H   -0.000000  -0.000005   0.000062   0.000004   0.000006  -0.000003
              19         20         21         22         23         24
     1  C   -0.002759   0.000487  -0.000041   0.000071   0.000080  -0.062586
     2  H    0.000602  -0.000011  -0.000000  -0.000000  -0.000011  -0.001372
     3  H    0.000933   0.000129   0.000012  -0.000066   0.000148  -0.000488
     4  C   -0.000035  -0.000018   0.000001  -0.000002  -0.000063   0.006103
     5  C    0.000007  -0.000017  -0.000000   0.000000   0.000095  -0.000075
     6  H   -0.000001  -0.000002   0.000000   0.000000   0.000005   0.000000
     7  H   -0.000000   0.000000   0.000000  -0.000000  -0.000001   0.000002
     8  H    0.000017  -0.000029  -0.000000  -0.000001   0.000222  -0.000082
     9  C   -0.000002  -0.000000   0.000000   0.000000  -0.000001  -0.000010
    10  H    0.000000  -0.000000   0.000000  -0.000000   0.000000   0.000002
    11  C    0.000000  -0.000000   0.000000   0.000000  -0.000000  -0.000022
    12  H    0.000000  -0.000000  -0.000000   0.000000   0.000000  -0.000002
    13  H   -0.000000   0.000000   0.000000  -0.000000  -0.000000   0.000002
    14  H    0.000001   0.000000   0.000000  -0.000000   0.000000   0.000034
    15  C    0.351810  -0.065376  -0.001680  -0.003425   0.003707  -0.044526
    16  H   -0.045803  -0.001090   0.002542  -0.000508  -0.000024  -0.001113
    17  H   -0.040403   0.003697  -0.000080   0.000012  -0.000109  -0.002344
    18  H   -0.044205  -0.002146  -0.000367   0.002838  -0.000072  -0.000621
    19  C    4.920190   0.348920  -0.043923  -0.043836  -0.036974   0.695503
    20  C    0.348920   4.906843   0.398573   0.402437   0.405946  -0.043606
    21  H   -0.043923   0.398573   0.583073  -0.033084  -0.026876  -0.000744
    22  H   -0.043836   0.402437  -0.033084   0.585543  -0.029641   0.000409
    23  H   -0.036974   0.405946  -0.026876  -0.029641   0.570741  -0.002889
    24  C    0.695503  -0.043606  -0.000744   0.000409  -0.002889   4.962299
    25  H   -0.035976   0.003360  -0.000124  -0.000112   0.000053   0.403004
    26  C   -0.048863  -0.007184   0.000191   0.000276  -0.002349   0.341682
    27  H    0.000972   0.000145   0.000033  -0.000012   0.000041  -0.044010
    28  H    0.000559  -0.001879   0.000040  -0.000035  -0.001474  -0.043149
              25         26         27         28
     1  C   -0.000349   0.325368  -0.045282  -0.040021
     2  H    0.001131  -0.041384  -0.002680   0.004046
     3  H    0.000186  -0.042900   0.004395  -0.002359
     4  C   -0.000118  -0.056896  -0.001369  -0.002268
     5  C   -0.000002  -0.000803   0.000304  -0.000487
     6  H    0.000000   0.000024   0.000006   0.000076
     7  H    0.000000  -0.000094  -0.000006  -0.000024
     8  H   -0.000000   0.000832   0.000016  -0.000581
     9  C    0.000009  -0.003332   0.000946   0.000498
    10  H   -0.000000  -0.000120  -0.000032   0.000002
    11  C   -0.000002   0.000493   0.000106  -0.000024
    12  H   -0.000000   0.000079  -0.000059   0.000000
    13  H   -0.000000  -0.000045   0.000018  -0.000000
    14  H    0.000035  -0.000174   0.000114  -0.000005
    15  C   -0.006708   0.003141  -0.000098   0.000062
    16  H    0.000153  -0.000123   0.000012   0.000004
    17  H    0.002204   0.000141  -0.000011   0.000006
    18  H    0.000224  -0.000086  -0.000002  -0.000003
    19  C   -0.035976  -0.048863   0.000972   0.000559
    20  C    0.003360  -0.007184   0.000145  -0.001879
    21  H   -0.000124   0.000191   0.000033   0.000040
    22  H   -0.000112   0.000276  -0.000012  -0.000035
    23  H    0.000053  -0.002349   0.000041  -0.001474
    24  C    0.403004   0.341682  -0.044010  -0.043149
    25  H    0.558277  -0.041947  -0.003530   0.003304
    26  C   -0.041947   4.978466   0.415019   0.414995
    27  H   -0.003530   0.415019   0.581197  -0.029790
    28  H    0.003304   0.414995  -0.029790   0.579631
 Mulliken charges:
               1
     1  C   -0.233924
     2  H    0.121843
     3  H    0.119753
     4  C    0.015173
     5  C   -0.339631
     6  H    0.116197
     7  H    0.117259
     8  H    0.112895
     9  C   -0.154413
    10  H    0.116179
    11  C   -0.353721
    12  H    0.118751
    13  H    0.121029
    14  H    0.115955
    15  C   -0.341869
    16  H    0.116047
    17  H    0.118364
    18  H    0.115430
    19  C    0.023266
    20  C   -0.349180
    21  H    0.122455
    22  H    0.119137
    23  H    0.119446
    24  C   -0.161399
    25  H    0.116931
    26  C   -0.234407
    27  H    0.123557
    28  H    0.118876
 Sum of Mulliken charges =  -0.00000
 Mulliken charges with hydrogens summed into heavy atoms:
               1
     1  C    0.007673
     4  C    0.015173
     5  C    0.006720
     9  C   -0.038234
    11  C    0.002013
    15  C    0.007972
    19  C    0.023266
    20  C    0.011858
    24  C   -0.044468
    26  C    0.008026
 Electronic spatial extent (au):  <R**2>=           2544.9960
 Charge=             -0.0000 electrons
 Dipole moment (field-independent basis, Debye):
    X=             -0.3490    Y=              0.1466    Z=              0.0263  Tot=              0.3794
 Quadrupole moment (field-independent basis, Debye-Ang):
   XX=            -63.8835   YY=            -63.9187   ZZ=            -67.2160
   XY=             -0.9691   XZ=             -0.9080   YZ=             -0.2409
 Traceless Quadrupole moment (field-independent basis, Debye-Ang):
   XX=              1.1225   YY=              1.0874   ZZ=             -2.2099
   XY=             -0.9691   XZ=             -0.9080   YZ=             -0.2409
 Octapole moment (field-independent basis, Debye-Ang**2):
  XXX=             -0.9228  YYY=             -2.8067  ZZZ=              0.8879  XYY=              0.2828
  XXY=              1.7967  XXZ=             -2.7161  XZZ=             -1.8069  YZZ=              1.3744
  YYZ=              0.5300  XYZ=              0.3795
 Hexadecapole moment (field-independent basis, Debye-Ang**3):
 XXXX=          -2708.1796 YYYY=           -641.3329 ZZZZ=           -161.4613 XXXY=             -7.6954
 XXXZ=            -11.8542 YYYX=              8.1777 YYYZ=             -1.4916 ZZZX=             -2.8100
 ZZZY=              1.9620 XXYY=           -565.0439 XXZZ=           -492.0540 YYZZ=           -130.8302
 XXYZ=             -3.0931 YYXZ=             -1.7789 ZZXY=             -8.1564
 N-N= 5.132780396201D+02 E-N=-1.931190478462D+03  KE= 3.886245193785D+02
 No NMR shielding tensors so no spin-rotation constants.
 Leave Link  601 at Fri Sep 17 13:38:39 2021, MaxMem=   524288000 cpu:               0.4 elap:               0.4
 (Enter /opt/gaussian/g16_legacy/l701.exe)
 ... and contract with generalized density number  2.
 Compute integral first derivatives.
 Leave Link  701 at Fri Sep 17 13:38:40 2021, MaxMem=   524288000 cpu:               0.4 elap:               0.4
 (Enter /opt/gaussian/g16_legacy/l702.exe)
 L702 exits ... SP integral derivatives will be done elsewhere.
 Leave Link  702 at Fri Sep 17 13:38:40 2021, MaxMem=   524288000 cpu:               0.1 elap:               0.1
 (Enter /opt/gaussian/g16_legacy/l703.exe)
 Integral derivatives from FoFJK, PRISM(SPDF).
 Compute integral first derivatives, UseDBF=F ICtDFT=           0.
 Calling FoFJK, ICntrl=  10002127 FMM=F ISym2X=0 I1Cent= 0 IOpClX= 0 NMat=1 NMatS=1 NMatT=0.
 FoFJK:  IHMeth= 1 ICntrl=10002127 DoSepK=F KAlg= 0 I1Cent=           0 FoldK=F
 IRaf=         0 NMat=       1 IRICut=       1 DoRegI=T DoRafI=F ISym2E= 0 IDoP0=0 IntGTp=1.
 FoFCou: FMM=F IPFlag=           0 FMFlag=      100000 FMFlg1=         800
         NFxFlg=           0 DoJE=F BraDBF=F KetDBF=F FulRan=T
         wScrn=  0.000000 ICntrl=  10002127 IOpCl=  0 I1Cent=           0 NGrid=           0
         NMat0=    1 NMatS0=      1 NMatT0=    0 NMatD0=    1 NMtDS0=    0 NMtDT0=    0
 Symmetry not used in FoFCou.
 Leave Link  703 at Fri Sep 17 13:39:15 2021, MaxMem=   524288000 cpu:              34.8 elap:              34.8
 (Enter /opt/gaussian/g16_legacy/l716.exe)
 Dipole        =-1.00062634D-01 3.49635139D-02 3.65054044D-03
 ***** Axes restored to original set *****
 -------------------------------------------------------------------
 Center     Atomic                   Forces (Hartrees/Bohr)
 Number     Number              X              Y              Z
 -------------------------------------------------------------------
      1        6          -0.005486872   -0.006770314    0.002542921
      2        1          -0.001622877    0.003472618   -0.001006766
      3        1          -0.001891232    0.003955171    0.000742239
      4        6          -0.000892572   -0.005939894   -0.001305245
      5        6          -0.002933364   -0.000495347   -0.000033170
      6        1          -0.000326776    0.003303972   -0.000393844
      7        1           0.003292968    0.001296337    0.002091623
      8        1           0.001317483   -0.002694485   -0.001432766
      9        6           0.000426603    0.003188782   -0.001802799
     10        1           0.002576591    0.001226543   -0.002112695
     11        6           0.001349505    0.000770376    0.002349503
     12        1           0.001865767   -0.002945994    0.000403619
     13        1          -0.000292450    0.002503030    0.002273685
     14        1          -0.002002047   -0.001885852   -0.002039699
     15        6           0.000370160   -0.001153536    0.003183574
     16        1           0.001655573   -0.002681821   -0.001192568
     17        1          -0.002324822    0.000137929   -0.003695144
     18        1           0.000024373    0.003538670   -0.000010190
     19        6           0.001313574   -0.003407416    0.004097227
     20        6          -0.004218350   -0.001298712   -0.001614667
     21        1           0.001469247   -0.002337589   -0.001494223
     22        1          -0.000455135    0.003358398    0.001453923
     23        1           0.001883528    0.001508030    0.002543060
     24        6          -0.003639435    0.003596829   -0.000151464
     25        1           0.001960422    0.000445318   -0.002703712
     26        6           0.005073460    0.005865587    0.000335609
     27        1          -0.000125600   -0.003852367   -0.001812679
     28        1           0.001632277   -0.002704265    0.000784650
 -------------------------------------------------------------------
 Cartesian Forces:  Max     0.006770314 RMS     0.002541142
 Leave Link  716 at Fri Sep 17 13:39:15 2021, MaxMem=   524288000 cpu:               0.1 elap:               0.1
 (Enter /opt/gaussian/g16_legacy/l103.exe)

 GradGradGradGradGradGradGradGradGradGradGradGradGradGradGradGradGradGrad
 Berny optimization.
 FormGI is forming the generalized inverse of G from B-inverse, IUseBI=4.
 Internal  Forces:  Max     0.004119670 RMS     0.001893187
 Search for a local minimum.
 Step number   1 out of a maximum of  138
 All quantities printed in internal units (Hartrees-Bohrs-Radians)
 RMS Force = .18932D-02 SwitMx=.10000D-02 MixMth= 1
 Mixed Optimization -- RFO/linear search
 Second derivative matrix not updated -- first step.
 ITU=  0
     Eigenvalues ---    0.00343   0.00570   0.00667   0.00679   0.00692
     Eigenvalues ---    0.00715   0.00820   0.01219   0.01287   0.01569
     Eigenvalues ---    0.01642   0.02780   0.02785   0.04014   0.04133
     Eigenvalues ---    0.05350   0.05403   0.06982   0.07039   0.07087
     Eigenvalues ---    0.07092   0.07265   0.07300   0.07347   0.07506
     Eigenvalues ---    0.09278   0.09365   0.12769   0.12846   0.15999
     Eigenvalues ---    0.15999   0.16000   0.16000   0.16000   0.16000
     Eigenvalues ---    0.16000   0.16000   0.16000   0.16000   0.16000
     Eigenvalues ---    0.16000   0.16000   0.16000   0.21859   0.21867
     Eigenvalues ---    0.22000   0.22000   0.24993   0.24996   0.24999
     Eigenvalues ---    0.24999   0.29239   0.30869   0.31606   0.31699
     Eigenvalues ---    0.31800   0.31979   0.32810   0.33861   0.33932
     Eigenvalues ---    0.34070   0.34191   0.34225   0.34228   0.34246
     Eigenvalues ---    0.34248   0.34254   0.34257   0.34265   0.34290
     Eigenvalues ---    0.34292   0.34340   0.34537   0.34558   0.34791
     Eigenvalues ---    0.34843   0.55503   0.55590
 RFO step:  Lambda=-2.86930301D-03 EMin= 3.42575955D-03
 Linear search not attempted -- first point.
 Iteration  1 RMS(Cart)=  0.04040785 RMS(Int)=  0.00070806
 Iteration  2 RMS(Cart)=  0.00101754 RMS(Int)=  0.00015639
 Iteration  3 RMS(Cart)=  0.00000056 RMS(Int)=  0.00015639
 ITry= 1 IFail=0 DXMaxC= 1.39D-01 DCOld= 1.00D+10 DXMaxT= 3.00D-01 DXLimC= 3.00D+00 Rises=F
 Variable       Old X    -DE/DX   Delta X   Delta X   Delta X     New X
                                 (Linear)    (Quad)   (Total)
    R1        2.07212  -0.00290   0.00000  -0.00844  -0.00844   2.06369
    R2        2.07566  -0.00311   0.00000  -0.00912  -0.00912   2.06654
    R3        2.86264  -0.00349   0.00000  -0.01121  -0.01121   2.85143
    R4        2.89507   0.00160   0.00000   0.00542   0.00542   2.90049
    R5        2.84870  -0.00063   0.00000  -0.00198  -0.00198   2.84672
    R6        2.54688  -0.00388   0.00000  -0.00696  -0.00696   2.53992
    R7        2.06904  -0.00212   0.00000  -0.00614  -0.00614   2.06290
    R8        2.06948  -0.00371   0.00000  -0.01073  -0.01073   2.05874
    R9        2.06841  -0.00172   0.00000  -0.00498  -0.00498   2.06343
   R10        2.05931  -0.00220   0.00000  -0.00627  -0.00627   2.05304
   R11        2.82686   0.00312   0.00000   0.00944   0.00944   2.83630
   R12        2.06899  -0.00269   0.00000  -0.00778  -0.00778   2.06122
   R13        2.06760  -0.00157   0.00000  -0.00453  -0.00453   2.06307
   R14        2.06399  -0.00302   0.00000  -0.00867  -0.00867   2.05532
   R15        2.06917  -0.00201   0.00000  -0.00581  -0.00581   2.06336
   R16        2.06953  -0.00398   0.00000  -0.01152  -0.01152   2.05800
   R17        2.06913  -0.00200   0.00000  -0.00578  -0.00578   2.06335
   R18        2.84697  -0.00077   0.00000  -0.00242  -0.00242   2.84455
   R19        2.84182  -0.00046   0.00000  -0.00141  -0.00141   2.84041
   R20        2.54611  -0.00316   0.00000  -0.00565  -0.00565   2.54046
   R21        2.06884  -0.00188   0.00000  -0.00545  -0.00545   2.06339
   R22        2.07009  -0.00271   0.00000  -0.00787  -0.00787   2.06222
   R23        2.06433  -0.00294   0.00000  -0.00845  -0.00845   2.05588
   R24        2.06016  -0.00205   0.00000  -0.00583  -0.00583   2.05433
   R25        2.84512  -0.00141   0.00000  -0.00441  -0.00441   2.84071
   R26        2.07444  -0.00276   0.00000  -0.00808  -0.00808   2.06637
   R27        2.06844  -0.00240   0.00000  -0.00695  -0.00695   2.06148
    A1        1.82990   0.00206   0.00000   0.02224   0.02207   1.85198
    A2        1.93129  -0.00018   0.00000   0.00554   0.00556   1.93685
    A3        1.91983  -0.00202   0.00000  -0.01379  -0.01383   1.90600
    A4        1.90138  -0.00009   0.00000   0.00118   0.00119   1.90257
    A5        1.91818  -0.00275   0.00000  -0.02407  -0.02410   1.89409
    A6        1.95881   0.00288   0.00000   0.00940   0.00944   1.96825
    A7        2.00707   0.00174   0.00000   0.00720   0.00666   2.01373
    A8        2.17219  -0.00412   0.00000  -0.01591  -0.01643   2.15577
    A9        2.10371   0.00240   0.00000   0.00987   0.00931   2.11303
   A10        1.92486   0.00164   0.00000   0.00897   0.00899   1.93384
   A11        1.95921  -0.00265   0.00000  -0.01331  -0.01328   1.94594
   A12        1.92854   0.00227   0.00000   0.01209   0.01211   1.94065
   A13        1.87755   0.00112   0.00000   0.01038   0.01041   1.88796
   A14        1.89460  -0.00305   0.00000  -0.02450  -0.02450   1.87010
   A15        1.87690   0.00055   0.00000   0.00556   0.00560   1.88250
   A16        2.06923  -0.00195   0.00000  -0.01342  -0.01344   2.05579
   A17        2.22588  -0.00182   0.00000  -0.00811  -0.00813   2.21775
   A18        1.98795   0.00377   0.00000   0.02170   0.02168   2.00962
   A19        1.91004   0.00238   0.00000   0.01555   0.01550   1.92554
   A20        1.91731   0.00385   0.00000   0.02273   0.02269   1.94000
   A21        1.98080  -0.00284   0.00000  -0.01745  -0.01737   1.96343
   A22        1.88716  -0.00306   0.00000  -0.01876  -0.01893   1.86823
   A23        1.87282   0.00045   0.00000   0.00445   0.00452   1.87734
   A24        1.89310  -0.00096   0.00000  -0.00761  -0.00752   1.88558
   A25        1.87885   0.00091   0.00000   0.00787   0.00791   1.88675
   A26        1.89492  -0.00314   0.00000  -0.02548  -0.02547   1.86945
   A27        1.92347   0.00175   0.00000   0.00876   0.00879   1.93226
   A28        1.87911   0.00092   0.00000   0.00940   0.00944   1.88855
   A29        1.96060  -0.00277   0.00000  -0.01386  -0.01382   1.94678
   A30        1.92488   0.00222   0.00000   0.01246   0.01249   1.93736
   A31        1.99470   0.00147   0.00000   0.00584   0.00581   2.00051
   A32        2.10561   0.00188   0.00000   0.00748   0.00746   2.11307
   A33        2.18284  -0.00335   0.00000  -0.01321  -0.01323   2.16960
   A34        1.92166   0.00225   0.00000   0.01141   0.01144   1.93309
   A35        1.92089   0.00000   0.00000  -0.00094  -0.00093   1.91997
   A36        1.97923  -0.00211   0.00000  -0.00951  -0.00949   1.96974
   A37        1.89073  -0.00238   0.00000  -0.02153  -0.02151   1.86921
   A38        1.88477   0.00022   0.00000   0.00329   0.00331   1.88809
   A39        1.86368   0.00193   0.00000   0.01648   0.01650   1.88017
   A40        2.06733  -0.00179   0.00000  -0.01214  -0.01254   2.05480
   A41        2.22785  -0.00178   0.00000  -0.00781  -0.00822   2.21963
   A42        1.98787   0.00358   0.00000   0.02077   0.02035   2.00822
   A43        1.94440   0.00331   0.00000   0.01375   0.01379   1.95820
   A44        1.91633  -0.00337   0.00000  -0.02311  -0.02330   1.89302
   A45        1.93105  -0.00169   0.00000  -0.01711  -0.01718   1.91387
   A46        1.88208   0.00136   0.00000   0.02214   0.02226   1.90434
   A47        1.94467  -0.00128   0.00000  -0.00726  -0.00720   1.93747
   A48        1.84177   0.00155   0.00000   0.01191   0.01166   1.85343
    D1       -2.64797  -0.00158   0.00000  -0.05511  -0.05492  -2.70289
    D2        0.47167  -0.00063   0.00000   0.00612   0.00590   0.47758
    D3       -0.64499   0.00074   0.00000  -0.02462  -0.02440  -0.66938
    D4        2.47466   0.00170   0.00000   0.03660   0.03643   2.51109
    D5        1.48336  -0.00090   0.00000  -0.04806  -0.04787   1.43548
    D6       -1.68018   0.00005   0.00000   0.01317   0.01295  -1.66723
    D7        0.96551   0.00055   0.00000   0.01723   0.01724   0.98274
    D8       -1.11824  -0.00105   0.00000  -0.00402  -0.00384  -1.12208
    D9        3.13900   0.00005   0.00000   0.00524   0.00520  -3.13899
   D10       -1.04066   0.00077   0.00000   0.01195   0.01187  -1.02880
   D11       -3.12441  -0.00082   0.00000  -0.00930  -0.00921  -3.13362
   D12        1.13283   0.00028   0.00000  -0.00005  -0.00017   1.13266
   D13        3.12378   0.00088   0.00000   0.02095   0.02089  -3.13851
   D14        1.04003  -0.00072   0.00000  -0.00030  -0.00018   1.03985
   D15       -0.98591   0.00038   0.00000   0.00895   0.00886  -0.97705
   D16        1.03796  -0.00011   0.00000   0.03766   0.03797   1.07593
[...]
                 (A) (A) (A) (A) (A) (A) (A) (A) (A) (A) (A) (A)
                 (A) (A) (A) (A) (A) (A) (A) (A) (A) (A) (A) (A)
                 (A) (A) (A) (A) (A) (A) (A) (A) (A) (A) (A) (A)
                 (A) (A) (A) (A) (A) (A) (A) (A) (A) (A) (A) (A)
                 (A) (A) (A) (A) (A) (A) (A) (A) (A) (A) (A) (A)
                 (A) (A) (A) (A) (A) (A) (A) (A) (A) (A) (A) (A)
                 (A) (A) (A) (A) (A) (A) (A) (A) (A) (A) (A) (A)
                 (A) (A) (A) (A) (A) (A) (A) (A) (A) (A) (A) (A)
                 (A) (A) (A) (A) (A) (A) (A) (A) (A) (A) (A) (A)
                 (A) (A) (A) (A) (A) (A) (A) (A) (A) (A) (A) (A)
                 (A) (A) (A) (A) (A) (A) (A) (A) (A) (A) (A) (A)
                 (A) (A) (A) (A) (A) (A) (A) (A) (A)
 The electronic state is 1-A.
 Alpha  occ. eigenvalues --  -11.23028 -11.22456 -11.21863 -11.21726 -11.21721
 Alpha  occ. eigenvalues --  -11.21541 -11.21497 -11.21449 -11.21393 -11.21358
 Alpha  occ. eigenvalues --   -1.10803  -1.08495  -1.01828  -0.98138  -0.93839
 Alpha  occ. eigenvalues --   -0.91936  -0.86954  -0.82861  -0.70567  -0.69489
 Alpha  occ. eigenvalues --   -0.64754  -0.61539  -0.60720  -0.58828  -0.58414
 Alpha  occ. eigenvalues --   -0.56814  -0.55405  -0.54979  -0.53298  -0.52217
 Alpha  occ. eigenvalues --   -0.51714  -0.51214  -0.50653  -0.50166  -0.47383
 Alpha  occ. eigenvalues --   -0.46917  -0.44458  -0.33328  -0.31563
 Alpha virt. eigenvalues --    0.18100   0.19932   0.22053   0.24536   0.24955
 Alpha virt. eigenvalues --    0.27424   0.28601   0.28877   0.30353   0.30694
 Alpha virt. eigenvalues --    0.31966   0.32601   0.32969   0.33726   0.34466
 Alpha virt. eigenvalues --    0.35524   0.36421   0.37370   0.38662   0.39972
 Alpha virt. eigenvalues --    0.40998   0.42095   0.42777   0.44262   0.45477
 Alpha virt. eigenvalues --    0.51938   0.54227   0.61292   0.62632   0.69521
 Alpha virt. eigenvalues --    0.71676   0.71855   0.74127   0.75627   0.76300
 Alpha virt. eigenvalues --    0.77310   0.78587   0.80192   0.80428   0.82510
 Alpha virt. eigenvalues --    0.83060   0.85963   0.89706   0.90634   0.91906
 Alpha virt. eigenvalues --    0.92727   0.94246   0.96733   0.97890   0.99038
 Alpha virt. eigenvalues --    0.99663   1.01316   1.02330   1.04636   1.06421
 Alpha virt. eigenvalues --    1.06946   1.08561   1.08610   1.11036   1.12563
 Alpha virt. eigenvalues --    1.13528   1.14242   1.14315   1.15516   1.15561
 Alpha virt. eigenvalues --    1.15995   1.16443   1.18511   1.18881   1.20423
 Alpha virt. eigenvalues --    1.21361   1.22874   1.23837   1.26678   1.27279
 Alpha virt. eigenvalues --    1.29587   1.40505   1.41229   1.45131   1.46302
 Alpha virt. eigenvalues --    1.47303   1.54539   1.56916   1.57904   1.58162
 Alpha virt. eigenvalues --    1.61580   1.62900   1.65166   1.67986   1.70099
 Alpha virt. eigenvalues --    1.73688   1.82808   1.91104   1.92024   1.96649
 Alpha virt. eigenvalues --    1.98629   2.01394   2.02264   2.04662   2.08570
 Alpha virt. eigenvalues --    2.09659   2.11023   2.11867   2.13286   2.14333
 Alpha virt. eigenvalues --    2.15615   2.17830   2.19386   2.23464   2.28302
 Alpha virt. eigenvalues --    2.29342   2.30634   2.33018   2.35331   2.35655
 Alpha virt. eigenvalues --    2.35947   2.36091   2.39306   2.40246   2.40800
 Alpha virt. eigenvalues --    2.42218   2.43338   2.43738   2.45452   2.46063
 Alpha virt. eigenvalues --    2.47468   2.49490   2.50160   2.50478   2.53353
 Alpha virt. eigenvalues --    2.56171   2.59443   2.61268   2.62977   2.65059
 Alpha virt. eigenvalues --    2.67062   2.68311   2.71449   2.72617   2.74255
 Alpha virt. eigenvalues --    2.76086   2.77474   2.80595   2.82947   2.83712
 Alpha virt. eigenvalues --    2.86556   2.90534   2.92645   2.94406   2.94575
 Alpha virt. eigenvalues --    2.97681   2.98672   3.01242   3.02716   3.05048
 Alpha virt. eigenvalues --    3.06983   3.08131   3.09712   3.12652   3.17075
 Alpha virt. eigenvalues --    3.17580   3.18813   3.20184   3.20611   3.22304
 Alpha virt. eigenvalues --    3.23445   3.25849   3.26685   3.27777   3.38376
 Alpha virt. eigenvalues --    3.40097   3.45764   3.46979   3.56086   3.58279
 Alpha virt. eigenvalues --    3.59222   3.61997   3.68641   3.74872   3.78914
 Alpha virt. eigenvalues --    3.79698   3.81279   3.82681   3.83341   3.84006
 Alpha virt. eigenvalues --    3.84104   3.86511   3.88184   3.89137   3.91421
 Alpha virt. eigenvalues --    3.97579   4.59401   4.62757   4.74521   4.82179
 Alpha virt. eigenvalues --    4.89167   4.92294   4.93230   5.07407   5.10903
 Alpha virt. eigenvalues --    5.17835
          Condensed to atoms (all electrons):
               1          2          3          4          5          6
     1  C    5.003997   0.413411   0.412745   0.339222  -0.057161  -0.003571
     2  H    0.413411   0.576310  -0.028359  -0.039654   0.003215  -0.000037
     3  H    0.412745  -0.028359   0.584867  -0.045647  -0.004621   0.002410
     4  C    0.339222  -0.039654  -0.045647   4.951262   0.352880  -0.041600
     5  C   -0.057161   0.003215  -0.004621   0.352880   4.891657   0.397676
     6  H   -0.003571  -0.000037   0.002410  -0.041600   0.397676   0.591603
     7  H    0.003819  -0.000111   0.000114  -0.042642   0.407271  -0.026708
     8  H   -0.000045  -0.000012  -0.000557  -0.045807   0.400489  -0.037732
     9  C   -0.046575  -0.001941   0.002347   0.696859  -0.046080  -0.000465
    10  H    0.003280   0.000029  -0.000115  -0.037937  -0.006573   0.000218
    11  C   -0.007739  -0.002699   0.000152  -0.049997   0.003357  -0.000104
    12  H    0.000295  -0.000067  -0.000013  -0.000357  -0.000097  -0.000004
    13  H    0.000167   0.000160   0.000018  -0.000541  -0.000105   0.000017
    14  H   -0.002166  -0.001508   0.000038  -0.000577   0.000102   0.000001
    15  C   -0.000102  -0.000001  -0.000045   0.000002  -0.000000   0.000000
    16  H   -0.000005   0.000000   0.000002   0.000000  -0.000000   0.000000
    17  H   -0.000003   0.000002  -0.000002   0.000000  -0.000000  -0.000000
    18  H    0.000024  -0.000001  -0.000008  -0.000000   0.000000  -0.000000
    19  C   -0.004098   0.000622   0.001256  -0.000004   0.000007  -0.000001
    20  C    0.000549  -0.000016   0.000191  -0.000019  -0.000025  -0.000001
    21  H   -0.000041   0.000000   0.000017   0.000001  -0.000000   0.000000
    22  H    0.000120  -0.000001  -0.000099  -0.000004   0.000001   0.000000
    23  H   -0.000058  -0.000011   0.000094  -0.000061   0.000096  -0.000000
    24  C   -0.062090  -0.001230   0.000057   0.006210  -0.000074   0.000003
    25  H   -0.000091   0.001049   0.000171  -0.000105  -0.000002   0.000000
    26  C    0.331129  -0.042384  -0.045730  -0.055684  -0.001011   0.000075
    27  H   -0.046716  -0.002896   0.004692  -0.001441   0.000280   0.000005
    28  H   -0.042601   0.004316  -0.002340  -0.002245  -0.000436   0.000058
               7          8          9         10         11         12
     1  C    0.003819  -0.000045  -0.046575   0.003280  -0.007739   0.000295
     2  H   -0.000111  -0.000012  -0.001941   0.000029  -0.002699  -0.000067
     3  H    0.000114  -0.000557   0.002347  -0.000115   0.000152  -0.000013
     4  C   -0.042642  -0.045807   0.696859  -0.037937  -0.049997  -0.000357
     5  C    0.407271   0.400489  -0.046080  -0.006573   0.003357  -0.000097
     6  H   -0.026708  -0.037732  -0.000465   0.000218  -0.000104  -0.000004
     7  H    0.568320  -0.027516  -0.002982   0.002347   0.000133  -0.000005
     8  H   -0.027516   0.599593  -0.000883   0.000143  -0.000102   0.000016
     9  C   -0.002982  -0.000883   4.938271   0.404337   0.340912  -0.041711
    10  H    0.002347   0.000143   0.404337   0.559262  -0.041317  -0.001238
    11  C    0.000133  -0.000102   0.340912  -0.041317   4.898015   0.401889
    12  H   -0.000005   0.000016  -0.041711  -0.001238   0.401889   0.585671
    13  H   -0.000006  -0.000004  -0.041774  -0.001163   0.401438  -0.035520
    14  H    0.000005  -0.000002  -0.043875   0.003330   0.409145  -0.029082
    15  C    0.000000  -0.000000  -0.000000   0.000000   0.000000  -0.000000
    16  H    0.000000   0.000000  -0.000000   0.000000  -0.000000  -0.000000
    17  H   -0.000000  -0.000000  -0.000000   0.000000  -0.000000  -0.000000
    18  H   -0.000000   0.000000   0.000000  -0.000000  -0.000000   0.000000
    19  C   -0.000000   0.000021  -0.000003   0.000000   0.000000   0.000000
    20  C    0.000000  -0.000043  -0.000000  -0.000000  -0.000000  -0.000000
    21  H    0.000000  -0.000000   0.000000   0.000000   0.000000  -0.000000
    22  H   -0.000000  -0.000001   0.000000  -0.000000   0.000000   0.000000
    23  H   -0.000001   0.000361  -0.000001   0.000000  -0.000000   0.000000
    24  C    0.000002  -0.000104   0.000036   0.000002  -0.000027  -0.000007
    25  H    0.000000  -0.000000   0.000007  -0.000000  -0.000002  -0.000000
    26  C   -0.000108   0.000669  -0.004455  -0.000120   0.000509   0.000149
    27  H   -0.000004  -0.000003   0.001236  -0.000038   0.000051  -0.000081
    28  H   -0.000040  -0.000466   0.000648   0.000001  -0.000030  -0.000000
              13         14         15         16         17         18
     1  C    0.000167  -0.002166  -0.000102  -0.000005  -0.000003   0.000024
     2  H    0.000160  -0.001508  -0.000001   0.000000   0.000002  -0.000001
     3  H    0.000018   0.000038  -0.000045   0.000002  -0.000002  -0.000008
     4  C   -0.000541  -0.000577   0.000002   0.000000   0.000000  -0.000000
     5  C   -0.000105   0.000102  -0.000000  -0.000000  -0.000000   0.000000
     6  H    0.000017   0.000001   0.000000   0.000000  -0.000000  -0.000000
     7  H   -0.000006   0.000005   0.000000   0.000000  -0.000000  -0.000000
     8  H   -0.000004  -0.000002  -0.000000   0.000000  -0.000000   0.000000
     9  C   -0.041774  -0.043875  -0.000000  -0.000000  -0.000000   0.000000
    10  H   -0.001163   0.003330   0.000000   0.000000   0.000000  -0.000000
    11  C    0.401438   0.409145   0.000000  -0.000000  -0.000000  -0.000000
    12  H   -0.035520  -0.029082  -0.000000  -0.000000  -0.000000   0.000000
    13  H    0.584890  -0.027817   0.000000   0.000000  -0.000000  -0.000000
    14  H   -0.027817   0.577276  -0.000000   0.000000   0.000000  -0.000000
    15  C    0.000000  -0.000000   4.900552   0.398829   0.406165   0.398175
    16  H    0.000000   0.000000   0.398829   0.593696  -0.026546  -0.037823
    17  H   -0.000000   0.000000   0.406165  -0.026546   0.565965  -0.026667
    18  H   -0.000000  -0.000000   0.398175  -0.037823  -0.026667   0.594540
    19  C   -0.000000   0.000001   0.353472  -0.044307  -0.041665  -0.043823
    20  C    0.000000   0.000000  -0.065053  -0.001177   0.003789  -0.001990
    21  H    0.000000   0.000000  -0.002204   0.002752  -0.000055  -0.000448
    22  H   -0.000000  -0.000000  -0.002670  -0.000486  -0.000029   0.002769
    23  H   -0.000000   0.000000   0.003758  -0.000032  -0.000115  -0.000068
    24  C    0.000002   0.000064  -0.044228  -0.001279  -0.002577  -0.000470
    25  H   -0.000000   0.000025  -0.006998   0.000188   0.002368   0.000180
    26  C   -0.000037  -0.000554   0.003136  -0.000128   0.000144  -0.000071
    27  H    0.000025   0.000016  -0.000091   0.000009  -0.000009  -0.000002
    28  H   -0.000000  -0.000004   0.000050   0.000006   0.000007  -0.000004
              19         20         21         22         23         24
     1  C   -0.004098   0.000549  -0.000041   0.000120  -0.000058  -0.062090
     2  H    0.000622  -0.000016   0.000000  -0.000001  -0.000011  -0.001230
     3  H    0.001256   0.000191   0.000017  -0.000099   0.000094   0.000057
     4  C   -0.000004  -0.000019   0.000001  -0.000004  -0.000061   0.006210
     5  C    0.000007  -0.000025  -0.000000   0.000001   0.000096  -0.000074
     6  H   -0.000001  -0.000001   0.000000   0.000000  -0.000000   0.000003
     7  H   -0.000000   0.000000   0.000000  -0.000000  -0.000001   0.000002
     8  H    0.000021  -0.000043  -0.000000  -0.000001   0.000361  -0.000104
     9  C   -0.000003  -0.000000   0.000000   0.000000  -0.000001   0.000036
    10  H    0.000000  -0.000000   0.000000  -0.000000   0.000000   0.000002
    11  C    0.000000  -0.000000   0.000000   0.000000  -0.000000  -0.000027
    12  H    0.000000  -0.000000  -0.000000   0.000000   0.000000  -0.000007
    13  H   -0.000000   0.000000   0.000000  -0.000000  -0.000000   0.000002
    14  H    0.000001   0.000000   0.000000  -0.000000   0.000000   0.000064
    15  C    0.353472  -0.065053  -0.002204  -0.002670   0.003758  -0.044228
    16  H   -0.044307  -0.001177   0.002752  -0.000486  -0.000032  -0.001279
    17  H   -0.041665   0.003789  -0.000055  -0.000029  -0.000115  -0.002577
    18  H   -0.043823  -0.001990  -0.000448   0.002769  -0.000068  -0.000470
    19  C    4.915064   0.350683  -0.043642  -0.043358  -0.037727   0.696285
    20  C    0.350683   4.904567   0.400306   0.401034   0.406928  -0.044156
    21  H   -0.043642   0.400306   0.585123  -0.035758  -0.026774  -0.000377
    22  H   -0.043358   0.401034  -0.035758   0.586876  -0.028092  -0.000024
    23  H   -0.037727   0.406928  -0.026774  -0.028092   0.570628  -0.003150
    24  C    0.696285  -0.044156  -0.000377  -0.000024  -0.003150   4.960934
    25  H   -0.038332   0.003541  -0.000120  -0.000122   0.000051   0.403960
    26  C   -0.049354  -0.007949   0.000140   0.000348  -0.002567   0.340992
    27  H    0.001446   0.000178   0.000024  -0.000014   0.000062  -0.041006
    28  H    0.000417  -0.002567   0.000086  -0.000063  -0.001998  -0.044503
              25         26         27         28
     1  C   -0.000091   0.331129  -0.046716  -0.042601
     2  H    0.001049  -0.042384  -0.002896   0.004316
     3  H    0.000171  -0.045730   0.004692  -0.002340
     4  C   -0.000105  -0.055684  -0.001441  -0.002245
     5  C   -0.000002  -0.001011   0.000280  -0.000436
     6  H    0.000000   0.000075   0.000005   0.000058
     7  H    0.000000  -0.000108  -0.000004  -0.000040
     8  H   -0.000000   0.000669  -0.000003  -0.000466
     9  C    0.000007  -0.004455   0.001236   0.000648
    10  H   -0.000000  -0.000120  -0.000038   0.000001
    11  C   -0.000002   0.000509   0.000051  -0.000030
    12  H   -0.000000   0.000149  -0.000081  -0.000000
    13  H   -0.000000  -0.000037   0.000025  -0.000000
    14  H    0.000025  -0.000554   0.000016  -0.000004
    15  C   -0.006998   0.003136  -0.000091   0.000050
    16  H    0.000188  -0.000128   0.000009   0.000006
    17  H    0.002368   0.000144  -0.000009   0.000007
    18  H    0.000180  -0.000071  -0.000002  -0.000004
    19  C   -0.038332  -0.049354   0.001446   0.000417
    20  C    0.003541  -0.007949   0.000178  -0.002567
    21  H   -0.000120   0.000140   0.000024   0.000086
    22  H   -0.000122   0.000348  -0.000014  -0.000063
    23  H    0.000051  -0.002567   0.000062  -0.001998
    24  C    0.403960   0.340992  -0.041006  -0.044503
    25  H    0.558056  -0.040061  -0.003353   0.003267
    26  C   -0.040061   4.977839   0.413228   0.416251
    27  H   -0.003353   0.413228   0.579538  -0.028540
    28  H    0.003267   0.416251  -0.028540   0.582598
 Mulliken charges:
               1
     1  C   -0.235696
     2  H    0.121814
     3  H    0.118365
     4  C    0.017883
     5  C   -0.340845
     6  H    0.118156
     7  H    0.118112
     8  H    0.111985
     9  C   -0.153908
    10  H    0.115552
    11  C   -0.353585
    12  H    0.120163
    13  H    0.120250
    14  H    0.115581
    15  C   -0.342746
    16  H    0.116299
    17  H    0.119226
    18  H    0.115688
    19  C    0.027041
    20  C   -0.348771
    21  H    0.120971
    22  H    0.119572
    23  H    0.118676
    24  C   -0.163245
    25  H    0.116321
    26  C   -0.234395
    27  H    0.123405
    28  H    0.118132
 Sum of Mulliken charges =  -0.00000
 Mulliken charges with hydrogens summed into heavy atoms:
               1
     1  C    0.004483
     4  C    0.017883
     5  C    0.007409
     9  C   -0.038356
    11  C    0.002408
    15  C    0.008468
    19  C    0.027041
    20  C    0.010448
    24  C   -0.046924
    26  C    0.007142
 Electronic spatial extent (au):  <R**2>=           2498.6165
 Charge=             -0.0000 electrons
 Dipole moment (field-independent basis, Debye):
    X=             -0.3626    Y=              0.1699    Z=              0.0498  Tot=              0.4035
 Quadrupole moment (field-independent basis, Debye-Ang):
   XX=            -63.7582   YY=            -63.7112   ZZ=            -67.3994
   XY=             -1.0617   XZ=             -1.2177   YZ=             -0.3674
 Traceless Quadrupole moment (field-independent basis, Debye-Ang):
   XX=              1.1981   YY=              1.2451   ZZ=             -2.4431
   XY=             -1.0617   XZ=             -1.2177   YZ=             -0.3674
 Octapole moment (field-independent basis, Debye-Ang**2):
  XXX=             -2.8324  YYY=             -2.8562  ZZZ=              0.8775  XYY=              0.7382
  XXY=              1.7309  XXZ=             -2.8066  XZZ=             -1.5462  YZZ=              1.4376
  YYZ=              0.7861  XYZ=              0.4940
 Hexadecapole moment (field-independent basis, Debye-Ang**3):
 XXXX=          -2633.5339 YYYY=           -638.9544 ZZZZ=           -166.0438 XXXY=            -10.5034
 XXXZ=            -13.5605 YYYX=              7.0822 YYYZ=             -1.6738 ZZZX=             -4.0400
 ZZZY=              2.3776 XXYY=           -550.6719 XXZZ=           -483.2676 YYZZ=           -131.1157
 XXYZ=             -4.5757 YYXZ=             -2.5312 ZZXY=             -7.7339
 N-N= 5.156965091417D+02 E-N=-1.936106384085D+03  KE= 3.887456768892D+02
 No NMR shielding tensors so no spin-rotation constants.
 Leave Link  601 at Fri Sep 17 15:24:55 2021, MaxMem=   524288000 cpu:               0.4 elap:               0.7
 (Enter /opt/gaussian/g16_legacy/l9999.exe)
 1\1\GINC-TRUENO91\FOpt\RMP2-FC\6-31G(d,p)\C10H18\JRAMOS\17-Sep-2021\0\
 \#p opt mp2/6-31g(d,p)\\Conformer number 2021. Energy MM = 23.287 kcal
 /mol\\0,1\C,-0.3172842833,-0.9114732929,0.1972113427\H,0.0737426356,-1
 .3890092634,1.0972983405\H,0.3070714502,-1.2600072163,-0.6301460618\C,
 -1.7508287235,-1.3050085686,-0.0555294394\C,-2.1705104888,-1.313050072
 ,-1.5006215033\H,-1.6089056299,-2.0616890698,-2.0636500141\H,-3.232574
 3487,-1.5297983061,-1.6080699251\H,-1.9729178476,-0.3475766967,-1.9719
 271648\C,-2.632524361,-1.5856155007,0.9220417766\H,-3.6488990292,-1.83
 19737581,0.6272638597\C,-2.3716042678,-1.5961874032,2.3976198056\H,-3.
 0252781441,-0.8872582318,2.9090506298\H,-2.5759516344,-2.5805095658,2.
 8230489394\H,-1.3447253791,-1.3319866055,2.639066119\C,3.5851238323,1.
 7508474712,0.0010000638\H,3.824130721,2.7902287395,-0.2353309299\H,3.7
 618425065,1.5931933008,1.0638525678\H,4.2874231755,1.1294589471,-0.559
 2122957\C,2.1654076528,1.4294374127,-0.3768053618\C,1.8423436291,1.628
 5216853,-1.8317443182\H,1.9924166934,2.6718546205,-2.1181297868\H,2.51
 50163971,1.0313770273,-2.4510559513\H,0.8218990766,1.3504119447,-2.082
 5157884\C,1.2839277783,1.0038720787,0.5476253882\H,1.6476998765,0.8799
 917967,1.5646920062\C,-0.1471463379,0.6146871183,0.3242577938\H,-0.755
 8016221,0.9593969084,1.1642390771\H,-0.5530933277,1.0976644997,-0.5655
 291695\\Version=EM64L-G16RevA.03\State=1-A\HF=-389.1568792\MP2=-390.57
 3553\RMSD=2.385e-09\RMSF=3.808e-06\Dipole=0.0830019,0.0428198,-0.06652
 64\PG=C01 [X(C10H18)]\\@


 ... UNTIL SCIENCE IS MIXED WITH EMOTION AND APPEALS TO THE HEART AND
 IMAGINATION , IT IS LIKE DEAD INORGANIC MATTER; AND WHEN IT IS SO MIXED
 AND SO TRANSFORMED IT IS LITERATURE.

                                  -- JOHN BURROUGHS
 Job cpu time:       0 days  1 hours 51 minutes 52.6 seconds.
 Elapsed time:       0 days  1 hours 52 minutes 13.4 seconds.
 File lengths (MBytes):  RWF=     32 Int=      0 D2E=      0 Chk=      7 Scr=      1
 Normal termination of Gaussian 16 at Fri Sep 17 15:24:55 2021.
