 Entering Gaussian System, Link 0=/opt/gaussian/g16_legacy/g16
 Input=01-IsoP_1378_gaussian.com
 Output=01-IsoP_1378_gaussian.log
 Initial command:
 /opt/gaussian/g16_legacy/l1.exe "/scratch-local/jramos/2661327/Gau-6152.inp" -scrdir="/scratch-local/jramos/2661327/"
 Entering Link 1 = /opt/gaussian/g16_legacy/l1.exe PID=      6153.
  
 Copyright (c) 1988,1990,1992,1993,1995,1998,2003,2009,2016,
            Gaussian, Inc.  All Rights Reserved.
  
 This is part of the Gaussian(R) 16 program.  It is based on
 the Gaussian(R) 09 system (copyright 2009, Gaussian, Inc.),
 the Gaussian(R) 03 system (copyright 2003, Gaussian, Inc.),
 the Gaussian(R) 98 system (copyright 1998, Gaussian, Inc.),
 the Gaussian(R) 94 system (copyright 1995, Gaussian, Inc.),
 the Gaussian 92(TM) system (copyright 1992, Gaussian, Inc.),
 the Gaussian 90(TM) system (copyright 1990, Gaussian, Inc.),
 the Gaussian 88(TM) system (copyright 1988, Gaussian, Inc.),
 the Gaussian 86(TM) system (copyright 1986, Carnegie Mellon
 University), and the Gaussian 82(TM) system (copyright 1983,
 Carnegie Mellon University). Gaussian is a federally registered
 trademark of Gaussian, Inc.
  
 This software contains proprietary and confidential information,
 including trade secrets, belonging to Gaussian, Inc.
  
 This software is provided under written license and may be
 used, copied, transmitted, or stored only in accord with that
 written license.
  
 The following legend is applicable only to US Government
 contracts under FAR:
  
                    RESTRICTED RIGHTS LEGEND
  
 Use, reproduction and disclosure by the US Government is
 subject to restrictions as set forth in subparagraphs (a)
 and (c) of the Commercial Computer Software - Restricted
 Rights clause in FAR 52.227-19.
  
 Gaussian, Inc.
 340 Quinnipiac St., Bldg. 40, Wallingford CT 06492
  
  
 ---------------------------------------------------------------
 Warning -- This program may not be used in any manner that
 competes with the business of Gaussian, Inc. or will provide
 assistance to any competitor of Gaussian, Inc.  The licensee
 of this program is prohibited from giving any competitor of
 Gaussian, Inc. access to this program.  By using this program,
 the user acknowledges that Gaussian, Inc. is engaged in the
 business of creating and licensing software in the field of
 computational chemistry and represents and warrants to the
 licensee that it is not a competitor of Gaussian, Inc. and that
 it will not use this program in any manner prohibited above.
 ---------------------------------------------------------------
  

 Cite this work as:
 Gaussian 16, Revision A.03,
 M. J. Frisch, G. W. Trucks, H. B. Schlegel, G. E. Scuseria, 
 M. A. Robb, J. R. Cheeseman, G. Scalmani, V. Barone, 
 G. A. Petersson, H. Nakatsuji, X. Li, M. Caricato, A. V. Marenich, 
 J. Bloino, B. G. Janesko, R. Gomperts, B. Mennucci, H. P. Hratchian, 
 J. V. Ortiz, A. F. Izmaylov, J. L. Sonnenberg, D. Williams-Young, 
 F. Ding, F. Lipparini, F. Egidi, J. Goings, B. Peng, A. Petrone, 
 T. Henderson, D. Ranasinghe, V. G. Zakrzewski, J. Gao, N. Rega, 
 G. Zheng, W. Liang, M. Hada, M. Ehara, K. Toyota, R. Fukuda, 
 J. Hasegawa, M. Ishida, T. Nakajima, Y. Honda, O. Kitao, H. Nakai, 
 T. Vreven, K. Throssell, J. A. Montgomery, Jr., J. E. Peralta, 
 F. Ogliaro, M. J. Bearpark, J. J. Heyd, E. N. Brothers, K. N. Kudin, 
 V. N. Staroverov, T. A. Keith, R. Kobayashi, J. Normand, 
 K. Raghavachari, A. P. Rendell, J. C. Burant, S. S. Iyengar, 
 J. Tomasi, M. Cossi, J. M. Millam, M. Klene, C. Adamo, R. Cammi, 
 J. W. Ochterski, R. L. Martin, K. Morokuma, O. Farkas, 
 J. B. Foresman, and D. J. Fox, Gaussian, Inc., Wallingford CT, 2016.
 
 ******************************************
 Gaussian 16:  EM64L-G16RevA.03 25-Dec-2016
                17-Sep-2021 
 ******************************************
 %chk=01-IsoP_1378_gaussian.chk
 %nproc=1
 Will use up to    1 processors via shared memory.
 %mem=4000Mb
 ---------------------
 #p opt mp2/6-31g(d,p)
 ---------------------
 1/18=20,19=15,38=1/1,3;
 2/9=110,12=2,17=6,18=5,40=1/2;
 3/5=1,6=6,7=101,11=9,25=1,30=1,71=1/1,2,3;
 4//1;
 5/5=2,38=5/2;
 8/6=4,10=2/1;
 9/15=2,16=-3/6;
 10/5=1/2;
 6/7=2,8=2,9=2,10=2/1;
 7/12=2/1,2,3,16;
 1/18=20,19=15/3(2);
 2/9=110/2;
 99//99;
 2/9=110/2;
 3/5=1,6=6,7=101,11=9,25=1,30=1,71=1/1,2,3;
 4/5=5,16=3,69=1/1;
 5/5=2,38=5/2;
 8/6=4,10=2/1;
 9/15=2,16=-3/6;
 10/5=1/2;
 7/12=2/1,2,3,16;
 1/18=20,19=15/3(-8);
 2/9=110/2;
 6/7=2,8=2,9=2,10=2/1;
 99//99;
 Leave Link    1 at Fri Sep 17 13:32:33 2021, MaxMem=   524288000 cpu:               0.0 elap:               0.2
 (Enter /opt/gaussian/g16_legacy/l101.exe)
 --------------------------------------------------
 Conformer number 1378. Energy MM = 23.242 kcal/mol
 --------------------------------------------------
 Symbolic Z-matrix:
 Charge =  0 Multiplicity = 1
 C                     0.6525    0.6249    0.8511 
 H                     0.4716   -0.3672    1.2819 
 H                     0.3895    1.3309    1.6504 
 C                     2.117     0.7959    0.5038 
 C                     2.6241    2.2143    0.555 
 H                     3.6883    2.2836    0.3061 
 H                     2.4919    2.6286    1.5599 
 H                     2.0774    2.8421   -0.1556 
 C                     2.9481   -0.2178    0.1903 
 H                     3.9922    0.0106   -0.0219 
 C                     2.6081   -1.6698    0.0695 
 H                     3.113    -2.2364    0.8577 
 H                     1.5366   -1.873     0.1299 
 H                     2.9569   -2.0464   -0.8975 
 C                    -3.9584   -0.3592    0.1613 
 H                    -4.6022   -0.4854   -0.7154 
 H                    -4.2416    0.5795    0.6489 
 H                    -4.1627   -1.1736    0.864 
 C                    -2.5094   -0.3758   -0.2506 
 C                    -2.0749   -1.6433   -0.9336 
 H                    -2.3392   -2.5107   -0.3191 
 H                    -2.5778   -1.7407   -1.9011 
 H                    -0.9977   -1.6961   -1.1068 
 C                    -1.71      0.678     0.0065 
 H                    -2.1346    1.537     0.5262 
 C                    -0.2592    0.8417   -0.3608 
 H                    -0.1263    1.8573   -0.7549 
 H                     0.0269    0.1707   -1.1774 
 
 ITRead=  0  0  0  0  0  0  0  0  0  0  0  0  0  0  0  0  0  0  0  0
 ITRead=  0  0  0  0  0  0  0  0
 MicOpt= -1 -1 -1 -1 -1 -1 -1 -1 -1 -1 -1 -1 -1 -1 -1 -1 -1 -1 -1 -1
 MicOpt= -1 -1 -1 -1 -1 -1 -1 -1
 NAtoms=     28 NQM=       28 NQMF=       0 NMMI=      0 NMMIF=      0
                NMic=       0 NMicF=      0.
                    Isotopes and Nuclear Properties:
 (Nuclear quadrupole moments (NQMom) in fm**2, nuclear magnetic moments (NMagM)
  in nuclear magnetons)

  Atom         1           2           3           4           5           6           7           8           9          10
 IAtWgt=          12           1           1          12          12           1           1           1          12           1
 AtmWgt=  12.0000000   1.0078250   1.0078250  12.0000000  12.0000000   1.0078250   1.0078250   1.0078250  12.0000000   1.0078250
 NucSpn=           0           1           1           0           0           1           1           1           0           1
 AtZEff=  -0.0000000  -0.0000000  -0.0000000  -0.0000000  -0.0000000  -0.0000000  -0.0000000  -0.0000000  -0.0000000  -0.0000000
 NQMom=    0.0000000   0.0000000   0.0000000   0.0000000   0.0000000   0.0000000   0.0000000   0.0000000   0.0000000   0.0000000
 NMagM=    0.0000000   2.7928460   2.7928460   0.0000000   0.0000000   2.7928460   2.7928460   2.7928460   0.0000000   2.7928460
 AtZNuc=   6.0000000   1.0000000   1.0000000   6.0000000   6.0000000   1.0000000   1.0000000   1.0000000   6.0000000   1.0000000

  Atom        11          12          13          14          15          16          17          18          19          20
 IAtWgt=          12           1           1           1          12           1           1           1          12          12
 AtmWgt=  12.0000000   1.0078250   1.0078250   1.0078250  12.0000000   1.0078250   1.0078250   1.0078250  12.0000000  12.0000000
 NucSpn=           0           1           1           1           0           1           1           1           0           0
 AtZEff=  -0.0000000  -0.0000000  -0.0000000  -0.0000000  -0.0000000  -0.0000000  -0.0000000  -0.0000000  -0.0000000  -0.0000000
 NQMom=    0.0000000   0.0000000   0.0000000   0.0000000   0.0000000   0.0000000   0.0000000   0.0000000   0.0000000   0.0000000
 NMagM=    0.0000000   2.7928460   2.7928460   2.7928460   0.0000000   2.7928460   2.7928460   2.7928460   0.0000000   0.0000000
 AtZNuc=   6.0000000   1.0000000   1.0000000   1.0000000   6.0000000   1.0000000   1.0000000   1.0000000   6.0000000   6.0000000

  Atom        21          22          23          24          25          26          27          28
 IAtWgt=           1           1           1          12           1          12           1           1
 AtmWgt=   1.0078250   1.0078250   1.0078250  12.0000000   1.0078250  12.0000000   1.0078250   1.0078250
 NucSpn=           1           1           1           0           1           0           1           1
 AtZEff=  -0.0000000  -0.0000000  -0.0000000  -0.0000000  -0.0000000  -0.0000000  -0.0000000  -0.0000000
 NQMom=    0.0000000   0.0000000   0.0000000   0.0000000   0.0000000   0.0000000   0.0000000   0.0000000
 NMagM=    2.7928460   2.7928460   2.7928460   0.0000000   2.7928460   0.0000000   2.7928460   2.7928460
 AtZNuc=   1.0000000   1.0000000   1.0000000   6.0000000   1.0000000   6.0000000   1.0000000   1.0000000
 Leave Link  101 at Fri Sep 17 13:32:34 2021, MaxMem=   524288000 cpu:               0.1 elap:               0.5
 (Enter /opt/gaussian/g16_legacy/l103.exe)

 GradGradGradGradGradGradGradGradGradGradGradGradGradGradGradGradGradGrad
 Berny optimization.
 Initialization pass.
                           ----------------------------
                           !    Initial Parameters    !
                           ! (Angstroms and Degrees)  !
 --------------------------                            --------------------------
 ! Name  Definition              Value          Derivative Info.                !
 --------------------------------------------------------------------------------
 ! R1    R(1,2)                  1.0966         estimate D2E/DX2                !
 ! R2    R(1,3)                  1.0984         estimate D2E/DX2                !
 ! R3    R(1,4)                  1.5148         estimate D2E/DX2                !
 ! R4    R(1,26)                 1.532          estimate D2E/DX2                !
 ! R5    R(4,5)                  1.5072         estimate D2E/DX2                !
 ! R6    R(4,9)                  1.3478         estimate D2E/DX2                !
 ! R7    R(5,6)                  1.0951         estimate D2E/DX2                !
 ! R8    R(5,7)                  1.095          estimate D2E/DX2                !
 ! R9    R(5,8)                  1.0945         estimate D2E/DX2                !
 ! R10   R(9,10)                 1.0897         estimate D2E/DX2                !
 ! R11   R(9,11)                 1.4962         estimate D2E/DX2                !
 ! R12   R(11,12)                1.0942         estimate D2E/DX2                !
 ! R13   R(11,13)                1.0923         estimate D2E/DX2                !
 ! R14   R(11,14)                1.0948         estimate D2E/DX2                !
 ! R15   R(15,16)                1.095          estimate D2E/DX2                !
 ! R16   R(15,17)                1.095          estimate D2E/DX2                !
 ! R17   R(15,18)                1.0949         estimate D2E/DX2                !
 ! R18   R(15,19)                1.5065         estimate D2E/DX2                !
 ! R19   R(19,20)                1.5039         estimate D2E/DX2                !
 ! R20   R(19,24)                1.3475         estimate D2E/DX2                !
 ! R21   R(20,21)                1.0954         estimate D2E/DX2                !
 ! R22   R(20,22)                1.0947         estimate D2E/DX2                !
 ! R23   R(20,23)                1.0923         estimate D2E/DX2                !
 ! R24   R(24,25)                1.0901         estimate D2E/DX2                !
 ! R25   R(24,26)                1.5055         estimate D2E/DX2                !
 ! R26   R(26,27)                1.0975         estimate D2E/DX2                !
 ! R27   R(26,28)                1.095          estimate D2E/DX2                !
 ! A1    A(2,1,3)              104.8401         estimate D2E/DX2                !
 ! A2    A(2,1,4)              110.59           estimate D2E/DX2                !
 ! A3    A(2,1,26)             109.9151         estimate D2E/DX2                !
 ! A4    A(3,1,4)              109.0122         estimate D2E/DX2                !
 ! A5    A(3,1,26)             110.0114         estimate D2E/DX2                !
 ! A6    A(4,1,26)             112.2106         estimate D2E/DX2                !
 ! A7    A(1,4,5)              115.0702         estimate D2E/DX2                !
 ! A8    A(1,4,9)              124.3731         estimate D2E/DX2                !
 ! A9    A(5,4,9)              120.5463         estimate D2E/DX2                !
 ! A10   A(4,5,6)              112.2586         estimate D2E/DX2                !
 ! A11   A(4,5,7)              110.2815         estimate D2E/DX2                !
 ! A12   A(4,5,8)              110.4681         estimate D2E/DX2                !
 ! A13   A(6,5,7)              107.576          estimate D2E/DX2                !
 ! A14   A(6,5,8)              107.5497         estimate D2E/DX2                !
 ! A15   A(7,5,8)              108.5724         estimate D2E/DX2                !
 ! A16   A(4,9,10)             118.5875         estimate D2E/DX2                !
 ! A17   A(4,9,11)             127.4855         estimate D2E/DX2                !
 ! A18   A(10,9,11)            113.9191         estimate D2E/DX2                !
 ! A19   A(9,11,12)            109.8479         estimate D2E/DX2                !
 ! A20   A(9,11,13)            113.5161         estimate D2E/DX2                !
 ! A21   A(9,11,14)            109.4359         estimate D2E/DX2                !
 ! A22   A(12,11,13)           108.4514         estimate D2E/DX2                !
 ! A23   A(12,11,14)           108.1272         estimate D2E/DX2                !
 ! A24   A(13,11,14)           107.3008         estimate D2E/DX2                !
 ! A25   A(16,15,17)           107.6531         estimate D2E/DX2                !
 ! A26   A(16,15,18)           108.5674         estimate D2E/DX2                !
 ! A27   A(16,15,19)           110.202          estimate D2E/DX2                !
 ! A28   A(17,15,18)           107.6731         estimate D2E/DX2                !
 ! A29   A(17,15,19)           112.3301         estimate D2E/DX2                !
 ! A30   A(18,15,19)           110.289          estimate D2E/DX2                !
 ! A31   A(15,19,20)           114.2888         estimate D2E/DX2                !
 ! A32   A(15,19,24)           120.653          estimate D2E/DX2                !
 ! A33   A(20,19,24)           125.0554         estimate D2E/DX2                !
 ! A34   A(19,20,21)           110.0537         estimate D2E/DX2                !
 ! A35   A(19,20,22)           110.0977         estimate D2E/DX2                !
 ! A36   A(19,20,23)           113.4319         estimate D2E/DX2                !
 ! A37   A(21,20,22)           108.3304         estimate D2E/DX2                !
 ! A38   A(21,20,23)           106.7756         estimate D2E/DX2                !
 ! A39   A(22,20,23)           107.9743         estimate D2E/DX2                !
 ! A40   A(19,24,25)           118.4353         estimate D2E/DX2                !
 ! A41   A(19,24,26)           127.6038         estimate D2E/DX2                !
 ! A42   A(25,24,26)           113.9534         estimate D2E/DX2                !
 ! A43   A(1,26,24)            111.4143         estimate D2E/DX2                !
 ! A44   A(1,26,27)            110.058          estimate D2E/DX2                !
 ! A45   A(1,26,28)            110.3498         estimate D2E/DX2                !
 ! A46   A(24,26,27)           107.7541         estimate D2E/DX2                !
 ! A47   A(24,26,28)           111.5376         estimate D2E/DX2                !
 ! A48   A(27,26,28)           105.5242         estimate D2E/DX2                !
 ! D1    D(2,1,4,5)           -151.4092         estimate D2E/DX2                !
 ! D2    D(2,1,4,9)             27.4154         estimate D2E/DX2                !
 ! D3    D(3,1,4,5)            -36.6483         estimate D2E/DX2                !
 ! D4    D(3,1,4,9)            142.1763         estimate D2E/DX2                !
 ! D5    D(26,1,4,5)            85.4686         estimate D2E/DX2                !
 ! D6    D(26,1,4,9)           -95.7067         estimate D2E/DX2                !
 ! D7    D(2,1,26,24)           56.9352         estimate D2E/DX2                !
 ! D8    D(2,1,26,27)          176.3999         estimate D2E/DX2                !
 ! D9    D(2,1,26,28)          -67.5397         estimate D2E/DX2                !
 ! D10   D(3,1,26,24)          -58.0171         estimate D2E/DX2                !
 ! D11   D(3,1,26,27)           61.4476         estimate D2E/DX2                !
 ! D12   D(3,1,26,28)          177.508          estimate D2E/DX2                !
 ! D13   D(4,1,26,24)         -179.5637         estimate D2E/DX2                !
 ! D14   D(4,1,26,27)          -60.099          estimate D2E/DX2                !
 ! D15   D(4,1,26,28)           55.9613         estimate D2E/DX2                !
 ! D16   D(1,4,5,6)            179.4339         estimate D2E/DX2                !
 ! D17   D(1,4,5,7)             59.4934         estimate D2E/DX2                !
 ! D18   D(1,4,5,8)            -60.5309         estimate D2E/DX2                !
 ! D19   D(9,4,5,6)              0.5604         estimate D2E/DX2                !
 ! D20   D(9,4,5,7)           -119.3801         estimate D2E/DX2                !
 ! D21   D(9,4,5,8)            120.5956         estimate D2E/DX2                !
 ! D22   D(1,4,9,10)          -178.5985         estimate D2E/DX2                !
 ! D23   D(1,4,9,11)             2.4893         estimate D2E/DX2                !
 ! D24   D(5,4,9,10)             0.1653         estimate D2E/DX2                !
 ! D25   D(5,4,9,11)          -178.7469         estimate D2E/DX2                !
 ! D26   D(4,9,11,12)         -113.6855         estimate D2E/DX2                !
 ! D27   D(4,9,11,13)            7.9181         estimate D2E/DX2                !
 ! D28   D(4,9,11,14)          127.7508         estimate D2E/DX2                !
 ! D29   D(10,9,11,12)          67.3594         estimate D2E/DX2                !
 ! D30   D(10,9,11,13)        -171.037          estimate D2E/DX2                !
 ! D31   D(10,9,11,14)         -51.2043         estimate D2E/DX2                !
 ! D32   D(16,15,19,20)        -59.5957         estimate D2E/DX2                !
 ! D33   D(16,15,19,24)        120.9863         estimate D2E/DX2                !
 ! D34   D(17,15,19,20)       -179.6266         estimate D2E/DX2                !
 ! D35   D(17,15,19,24)          0.9553         estimate D2E/DX2                !
 ! D36   D(18,15,19,20)         60.2571         estimate D2E/DX2                !
 ! D37   D(18,15,19,24)       -119.161          estimate D2E/DX2                !
 ! D38   D(15,19,20,21)        -52.7904         estimate D2E/DX2                !
 ! D39   D(15,19,20,22)         66.5546         estimate D2E/DX2                !
 ! D40   D(15,19,20,23)       -172.3332         estimate D2E/DX2                !
 ! D41   D(24,19,20,21)        126.5979         estimate D2E/DX2                !
 ! D42   D(24,19,20,22)       -114.057          estimate D2E/DX2                !
 ! D43   D(24,19,20,23)          7.0552         estimate D2E/DX2                !
 ! D44   D(15,19,24,25)          0.5172         estimate D2E/DX2                !
 ! D45   D(15,19,24,26)       -178.4299         estimate D2E/DX2                !
 ! D46   D(20,19,24,25)       -178.8348         estimate D2E/DX2                !
 ! D47   D(20,19,24,26)          2.2181         estimate D2E/DX2                !
 ! D48   D(19,24,26,1)        -103.3691         estimate D2E/DX2                !
 ! D49   D(19,24,26,27)        135.8072         estimate D2E/DX2                !
 ! D50   D(19,24,26,28)         20.4353         estimate D2E/DX2                !
 ! D51   D(25,24,26,1)          77.6439         estimate D2E/DX2                !
 ! D52   D(25,24,26,27)        -43.1797         estimate D2E/DX2                !
 ! D53   D(25,24,26,28)       -158.5516         estimate D2E/DX2                !
 --------------------------------------------------------------------------------
 Trust Radius=3.00D-01 FncErr=1.00D-07 GrdErr=1.00D-07 EigMax=2.50D+02 EigMin=1.00D-04
 Number of steps in this run=    138 maximum allowed number of steps=    168.
 GradGradGradGradGradGradGradGradGradGradGradGradGradGradGradGradGradGrad

 Leave Link  103 at Fri Sep 17 13:32:34 2021, MaxMem=   524288000 cpu:               0.0 elap:               0.5
 (Enter /opt/gaussian/g16_legacy/l202.exe)
                          Input orientation:                          
 ---------------------------------------------------------------------
 Center     Atomic      Atomic             Coordinates (Angstroms)
 Number     Number       Type             X           Y           Z
 ---------------------------------------------------------------------
      1          6           0        0.652500    0.624900    0.851100
      2          1           0        0.471600   -0.367200    1.281900
      3          1           0        0.389500    1.330900    1.650400
      4          6           0        2.117000    0.795900    0.503800
      5          6           0        2.624100    2.214300    0.555000
      6          1           0        3.688300    2.283600    0.306100
      7          1           0        2.491900    2.628600    1.559900
      8          1           0        2.077400    2.842100   -0.155600
      9          6           0        2.948100   -0.217800    0.190300
     10          1           0        3.992200    0.010600   -0.021900
     11          6           0        2.608100   -1.669800    0.069500
     12          1           0        3.113000   -2.236400    0.857700
     13          1           0        1.536600   -1.873000    0.129900
     14          1           0        2.956900   -2.046400   -0.897500
     15          6           0       -3.958400   -0.359200    0.161300
     16          1           0       -4.602200   -0.485400   -0.715400
     17          1           0       -4.241600    0.579500    0.648900
     18          1           0       -4.162700   -1.173600    0.864000
     19          6           0       -2.509400   -0.375800   -0.250600
     20          6           0       -2.074900   -1.643300   -0.933600
     21          1           0       -2.339200   -2.510700   -0.319100
     22          1           0       -2.577800   -1.740700   -1.901100
     23          1           0       -0.997700   -1.696100   -1.106800
     24          6           0       -1.710000    0.678000    0.006500
     25          1           0       -2.134600    1.537000    0.526200
     26          6           0       -0.259200    0.841700   -0.360800
     27          1           0       -0.126300    1.857300   -0.754900
     28          1           0        0.026900    0.170700   -1.177400
 ---------------------------------------------------------------------
                    Distance matrix (angstroms):
                    1          2          3          4          5
     1  C    0.000000
     2  H    1.096620   0.000000
     3  H    1.098401   1.739562   0.000000
     4  C    1.514800   2.159996   2.141302   0.000000
     5  C    2.549720   3.438863   2.640783   1.507193   0.000000
     6  H    3.502055   4.280898   3.687392   2.172860   1.095114
     7  H    2.810801   3.624047   2.472307   2.148182   1.094964
     8  H    2.821305   3.865825   2.897304   2.150189   1.094516
     9  C    2.533097   2.710528   3.328182   1.347812   2.480543
    10  H    3.506150   3.773228   4.185598   2.099865   2.657218
    11  C    3.114630   2.780524   4.052855   2.551367   3.914358
    12  H    3.773744   3.263564   4.557571   3.211247   4.487692
    13  H    2.746137   2.174572   3.727296   2.756754   4.250810
    14  H    3.937474   3.707589   4.948686   3.278375   4.513765
    15  C    4.764942   4.569541   4.896743   6.193710   7.078645
    16  H    5.594512   5.454047   5.814897   6.948081   7.818037
    17  H    4.898486   4.848833   4.797363   6.363936   7.058273
    18  H    5.140128   4.722463   5.254852   6.591154   7.591706
    19  C    3.494675   3.351864   3.863968   4.831726   5.806069
    20  C    3.970969   3.608536   4.647170   5.058443   6.259202
    21  H    4.489056   3.880514   5.107115   5.609678   6.908258
    22  H    4.858550   4.617015   5.554525   5.853121   6.980990
    23  H    3.455948   3.103338   4.323101   4.301796   5.583032
    24  C    2.509497   2.734679   2.745284   3.860976   4.630928
    25  H    2.950494   3.315017   2.770809   4.315766   4.806744
    26  C    1.531960   2.166557   2.169114   2.529023   3.322069
    27  H    2.169003   3.074807   2.515674   2.782677   3.067244
    28  H    2.170826   2.556414   3.077986   2.754238   3.731348
                    6          7          8          9         10
     6  H    0.000000
     7  H    1.767035   0.000000
     8  H    1.766377   1.777732   0.000000
     9  C    2.611189   3.191538   3.200118   0.000000
    10  H    2.316564   3.406892   3.420779   1.089651   0.000000
    11  C    4.105141   4.550938   4.548577   1.496161   2.178952
    12  H    4.589731   4.954500   5.281137   2.132454   2.568209
    13  H    4.683821   4.818911   4.754592   2.176159   3.098542
    14  H    4.553295   5.301949   5.022088   2.127713   2.463690
    15  C    8.091809   7.244957   6.839564   6.908008   7.961304
    16  H    8.800183   8.074667   7.483494   7.609135   8.636589
    17  H    8.118176   7.097095   6.759907   7.248295   8.280645
    18  H    8.596609   7.695759   7.490279   7.206310   8.287915
    19  C    6.767112   6.108791   5.603806   5.477560   6.517086
    20  C    7.083211   6.732186   6.161631   5.340948   6.354234
    21  H    7.727027   7.299491   6.941582   5.785535   6.821430
    22  H    7.767286   7.534664   6.761635   6.101537   7.054314
    23  H    6.308161   6.163735   5.563837   4.408761   5.384137
    24  C    5.639978   4.886088   4.365089   4.747013   5.741194
    25  H    5.874693   4.864630   4.461959   5.387577   6.337822
    26  C    4.255184   3.801401   3.082760   3.422430   4.345110
    27  H    3.982289   3.578851   2.487023   3.827712   4.572705
    28  H    4.480063   4.428353   3.519233   3.248837   4.133330
                   11         12         13         14         15
    11  C    0.000000
    12  H    1.094175   0.000000
    13  H    1.092269   1.773919   0.000000
    14  H    1.094796   1.772341   1.761497   0.000000
    15  C    6.696643   7.349391   5.699790   7.196463   0.000000
    16  H    7.348966   8.066285   6.350184   7.720743   1.094992
    17  H    7.232803   7.878009   6.298548   7.816976   1.095040
    18  H    6.835289   7.352917   5.788789   7.386025   1.094885
    19  C    5.288261   6.025076   4.330878   5.752375   1.506499
    20  C    4.789301   5.520401   3.771833   5.048050   2.528891
    21  H    5.033279   5.584495   3.953491   5.347784   2.735241
    22  H    5.548139   6.343650   4.590289   5.633256   2.840439
    23  H    3.792910   4.587923   2.825491   3.975598   3.487280
    24  C    4.915498   5.699087   4.130767   5.479008   2.480937
    25  H    5.743287   6.471920   5.026218   6.386787   2.656120
    26  C    3.835909   4.725587   3.291699   4.355740   3.924134
    27  H    4.538393   5.463691   4.178905   4.976478   4.520762
    28  H    3.406581   4.411324   2.857435   3.684939   4.237396
                   16         17         18         19         20
    16  H    0.000000
    17  H    1.767868   0.000000
    18  H    1.778000   1.768008   0.000000
    19  C    2.146593   2.173066   2.147608   0.000000
    20  C    2.788474   3.484212   2.794797   1.503940   0.000000
    21  H    3.062689   3.755727   2.552002   2.142769   1.095376
    22  H    2.660800   3.828062   3.237173   2.142844   1.094738
    23  H    3.822487   4.334020   3.764875   2.182088   1.092312
    24  C    3.199916   2.613691   3.190528   1.347455   2.530884
    25  H    3.423554   2.317609   3.402154   2.098260   3.499841
    26  C    4.555061   4.116765   4.560579   2.560830   3.130510
    27  H    5.052077   4.532011   5.300917   3.304576   4.010384
    28  H    4.698136   4.660749   4.850485   2.755075   2.787041
                   21         22         23         24         25
    21  H    0.000000
    22  H    1.775543   0.000000
    23  H    1.756037   1.769073   0.000000
    24  C    3.266453   3.200332   2.717197   0.000000
    25  H    4.140081   4.102625   3.796336   1.090071   0.000000
    26  C    3.945469   3.797001   2.746330   1.505499   2.187998
    27  H    4.915920   4.502136   3.675571   2.116267   2.403555
    28  H    3.677637   3.310839   2.130665   2.162358   3.072639
                   26         27         28
    26  C    0.000000
    27  H    1.097461   0.000000
    28  H    1.094957   1.745450   0.000000
 Stoichiometry    C10H18
 Framework group  C1[X(C10H18)]
 Deg. of freedom    78
 Full point group                 C1      NOp   1
 Largest Abelian subgroup         C1      NOp   1
 Largest concise Abelian subgroup C1      NOp   1
                         Standard orientation:                         
 ---------------------------------------------------------------------
 Center     Atomic      Atomic             Coordinates (Angstroms)
 Number     Number       Type             X           Y           Z
 ---------------------------------------------------------------------
      1          6           0       -0.793799   -0.586467    0.589149
      2          1           0       -0.484627    0.235311    1.246165
      3          1           0       -0.746015   -1.484303    1.220095
      4          6           0       -2.220898   -0.386977    0.122021
      5          6           0       -2.975666   -1.655016   -0.184627
      6          1           0       -4.003237   -1.458205   -0.508108
      7          1           0       -3.025230   -2.291737    0.704797
      8          1           0       -2.478708   -2.212193   -0.984972
      9          6           0       -2.820269    0.813882   -0.001630
     10          1           0       -3.860417    0.846665   -0.324674
     11          6           0       -2.215720    2.161891    0.234772
     12          1           0       -2.690814    2.635716    1.099060
     13          1           0       -1.137415    2.131942    0.406273
     14          1           0       -2.388761    2.797216   -0.639870
     15          6           0        3.965129   -0.407959    0.429716
     16          1           0        4.709075   -0.227418   -0.353200
     17          1           0        4.023666   -1.466008    0.705794
     18          1           0        4.237073    0.181209    1.311589
     19          6           0        2.593439   -0.018250   -0.056220
     20          6           0        2.465992    1.425933   -0.456128
     21          1           0        2.815312    2.072771    0.355921
     22          1           0        3.076423    1.626083   -1.342562
     23          1           0        1.439603    1.726010   -0.678897
     24          6           0        1.596304   -0.923602   -0.097381
     25          1           0        1.804063   -1.940143    0.236889
     26          6           0        0.186000   -0.715569   -0.581418
     27          1           0       -0.084239   -1.577131   -1.205199
     28          1           0        0.111172    0.157024   -1.238618
 ---------------------------------------------------------------------
 Rotational constants (GHZ):           2.2181118           0.5802264           0.4854200
 Leave Link  202 at Fri Sep 17 13:32:35 2021, MaxMem=   524288000 cpu:               0.0 elap:               0.1
 (Enter /opt/gaussian/g16_legacy/l301.exe)
 Standard basis: 6-31G(d,p) (6D, 7F)
 Ernie: Thresh=  0.10000D-02 Tol=  0.10000D-05 Strict=F.
 There are   240 symmetry adapted cartesian basis functions of A   symmetry.
 There are   240 symmetry adapted basis functions of A   symmetry.
   240 basis functions,   406 primitive gaussians,   240 cartesian basis functions
    39 alpha electrons       39 beta electrons
       nuclear repulsion energy       516.4340018649 Hartrees.
 IExCor=    0 DFT=F Ex=HF Corr=None ExCW=0 ScaHFX=  1.000000
 ScaDFX=  1.000000  1.000000  1.000000  1.000000 ScalE2=  1.000000  1.000000
 IRadAn=      5 IRanWt=     -1 IRanGd=            0 ICorTp=0 IEmpDi=  4
 NAtoms=   28 NActive=   28 NUniq=   28 SFac= 1.00D+00 NAtFMM=   60 NAOKFM=F Big=F
 Integral buffers will be    131072 words long.
 Raffenetti 1 integral format.
 Two-electron integral symmetry is turned on.
 Leave Link  301 at Fri Sep 17 13:32:36 2021, MaxMem=   524288000 cpu:               0.1 elap:               0.7
 (Enter /opt/gaussian/g16_legacy/l302.exe)
 NPDir=0 NMtPBC=     1 NCelOv=     1 NCel=       1 NClECP=     1 NCelD=      1
         NCelK=      1 NCelE2=     1 NClLst=     1 CellRange=     0.0.
 One-electron integrals computed using PRISM.
 One-electron integral symmetry used in STVInt
 NBasis=   240 RedAO= T EigKep=  2.10D-03  NBF=   240
 NBsUse=   240 1.00D-06 EigRej= -1.00D+00 NBFU=   240
 Leave Link  302 at Fri Sep 17 13:32:36 2021, MaxMem=   524288000 cpu:               0.2 elap:               0.4
 (Enter /opt/gaussian/g16_legacy/l303.exe)
 DipDrv:  MaxL=1.
 Leave Link  303 at Fri Sep 17 13:32:37 2021, MaxMem=   524288000 cpu:               0.0 elap:               0.2
 (Enter /opt/gaussian/g16_legacy/l401.exe)
 ExpMin= 1.61D-01 ExpMax= 3.05D+03 ExpMxC= 4.57D+02 IAcc=3 IRadAn=         5 AccDes= 0.00D+00
 Harris functional with IExCor=  205 and IRadAn=       5 diagonalized for initial guess.
 HarFok:  IExCor=  205 AccDes= 0.00D+00 IRadAn=         5 IDoV= 1 UseB2=F ITyADJ=14
 ICtDFT=  3500011 ScaDFX=  1.000000  1.000000  1.000000  1.000000
 FoFCou: FMM=F IPFlag=           0 FMFlag=      100000 FMFlg1=           0
         NFxFlg=           0 DoJE=T BraDBF=F KetDBF=T FulRan=T
         wScrn=  0.000000 ICntrl=       500 IOpCl=  0 I1Cent=   200000004 NGrid=           0
         NMat0=    1 NMatS0=      1 NMatT0=    0 NMatD0=    1 NMtDS0=    0 NMtDT0=    0
 Petite list used in FoFCou.
 Harris En= -390.109891673072    
 JPrj=0 DoOrth=F DoCkMO=F.
 Leave Link  401 at Fri Sep 17 13:32:44 2021, MaxMem=   524288000 cpu:               6.2 elap:               7.5
 (Enter /opt/gaussian/g16_legacy/l502.exe)
 Keep R1 ints in memory in canonical form, NReq=425198025.
 FoFCou: FMM=F IPFlag=           0 FMFlag=           0 FMFlg1=           0
         NFxFlg=           0 DoJE=F BraDBF=F KetDBF=F FulRan=T
         wScrn=  0.000000 ICntrl=       600 IOpCl=  0 I1Cent=           0 NGrid=           0
         NMat0=    1 NMatS0=  28920 NMatT0=    0 NMatD0=    1 NMtDS0=    0 NMtDT0=    0
 Symmetry not used in FoFCou.
 Two-electron integral symmetry not used.
 Closed shell SCF:
 Using DIIS extrapolation, IDIIS=  1040.
 NGot=   524288000 LenX=   105970886 LenY=   105912845
 Requested convergence on RMS density matrix=1.00D-08 within 128 cycles.
 Requested convergence on MAX density matrix=1.00D-06.
 Requested convergence on             energy=1.00D-06.
 No special actions if energy rises.

 Cycle   1  Pass 1  IDiag  1:
 E= -388.533184066865    
 DIIS: error= 5.21D-02 at cycle   1 NSaved=   1.
 NSaved= 1 IEnMin= 1 EnMin= -388.533184066865     IErMin= 1 ErrMin= 5.21D-02
 ErrMax= 5.21D-02  0.00D+00 EMaxC= 1.00D-01 BMatC= 8.07D-01 BMatP= 8.07D-01
 IDIUse=3 WtCom= 4.79D-01 WtEn= 5.21D-01
 Coeff-Com:  0.100D+01
 Coeff-En:   0.100D+01
 Coeff:      0.100D+01
 Gap=     0.508 Goal=   None    Shift=    0.000
 GapD=    0.508 DampG=2.000 DampE=0.500 DampFc=1.0000 IDamp=-1.
 RMSDP=4.00D-03 MaxDP=1.14D-01              OVMax= 1.33D-01

 Cycle   2  Pass 1  IDiag  1:
 E= -389.073874740480     Delta-E=       -0.540690673615 Rises=F Damp=F
 DIIS: error= 1.59D-02 at cycle   2 NSaved=   2.
 NSaved= 2 IEnMin= 2 EnMin= -389.073874740480     IErMin= 2 ErrMin= 1.59D-02
 ErrMax= 1.59D-02  0.00D+00 EMaxC= 1.00D-01 BMatC= 8.66D-02 BMatP= 8.07D-01
 IDIUse=3 WtCom= 8.41D-01 WtEn= 1.59D-01
 Coeff-Com:  0.183D+00 0.817D+00
 Coeff-En:   0.000D+00 0.100D+01
 Coeff:      0.154D+00 0.846D+00
 Gap=     0.549 Goal=   None    Shift=    0.000
 RMSDP=1.63D-03 MaxDP=3.04D-02 DE=-5.41D-01 OVMax= 4.61D-02

 Cycle   3  Pass 1  IDiag  1:
 E= -389.151431948016     Delta-E=       -0.077557207535 Rises=F Damp=F
 DIIS: error= 3.43D-03 at cycle   3 NSaved=   3.
 NSaved= 3 IEnMin= 3 EnMin= -389.151431948016     IErMin= 3 ErrMin= 3.43D-03
 ErrMax= 3.43D-03  0.00D+00 EMaxC= 1.00D-01 BMatC= 3.14D-03 BMatP= 8.66D-02
 IDIUse=3 WtCom= 9.66D-01 WtEn= 3.43D-02
 Coeff-Com: -0.245D-01 0.106D+00 0.919D+00
 Coeff-En:   0.000D+00 0.000D+00 0.100D+01
 Coeff:     -0.236D-01 0.102D+00 0.921D+00
 Gap=     0.499 Goal=   None    Shift=    0.000
 RMSDP=2.59D-04 MaxDP=7.15D-03 DE=-7.76D-02 OVMax= 1.01D-02

 Cycle   4  Pass 1  IDiag  1:
 E= -389.155057692658     Delta-E=       -0.003625744642 Rises=F Damp=F
 DIIS: error= 5.31D-04 at cycle   4 NSaved=   4.
 NSaved= 4 IEnMin= 4 EnMin= -389.155057692658     IErMin= 4 ErrMin= 5.31D-04
 ErrMax= 5.31D-04  0.00D+00 EMaxC= 1.00D-01 BMatC= 9.29D-05 BMatP= 3.14D-03
 IDIUse=3 WtCom= 9.95D-01 WtEn= 5.31D-03
 Coeff-Com: -0.424D-02-0.189D-02 0.950D-01 0.911D+00
 Coeff-En:   0.000D+00 0.000D+00 0.000D+00 0.100D+01
 Coeff:     -0.422D-02-0.188D-02 0.945D-01 0.912D+00
 Gap=     0.499 Goal=   None    Shift=    0.000
 RMSDP=7.39D-05 MaxDP=1.49D-03 DE=-3.63D-03 OVMax= 3.14D-03

 Cycle   5  Pass 1  IDiag  1:
 E= -389.155182045500     Delta-E=       -0.000124352842 Rises=F Damp=F
 DIIS: error= 1.62D-04 at cycle   5 NSaved=   5.
 NSaved= 5 IEnMin= 5 EnMin= -389.155182045500     IErMin= 5 ErrMin= 1.62D-04
 ErrMax= 1.62D-04  0.00D+00 EMaxC= 1.00D-01 BMatC= 1.60D-05 BMatP= 9.29D-05
 IDIUse=3 WtCom= 9.98D-01 WtEn= 1.62D-03
 Coeff-Com:  0.241D-02-0.152D-01-0.102D+00 0.176D+00 0.939D+00
 Coeff-En:   0.000D+00 0.000D+00 0.000D+00 0.000D+00 0.100D+01
 Coeff:      0.241D-02-0.152D-01-0.102D+00 0.175D+00 0.939D+00
 Gap=     0.500 Goal=   None    Shift=    0.000
 RMSDP=3.00D-05 MaxDP=6.57D-04 DE=-1.24D-04 OVMax= 9.24D-04

 Cycle   6  Pass 1  IDiag  1:
 E= -389.155203531607     Delta-E=       -0.000021486107 Rises=F Damp=F
 DIIS: error= 3.58D-05 at cycle   6 NSaved=   6.
 NSaved= 6 IEnMin= 6 EnMin= -389.155203531607     IErMin= 6 ErrMin= 3.58D-05
 ErrMax= 3.58D-05  0.00D+00 EMaxC= 1.00D-01 BMatC= 5.50D-07 BMatP= 1.60D-05
 IDIUse=1 WtCom= 1.00D+00 WtEn= 0.00D+00
 Coeff-Com:  0.720D-03-0.335D-02-0.261D-01-0.433D-02 0.177D+00 0.856D+00
 Coeff:      0.720D-03-0.335D-02-0.261D-01-0.433D-02 0.177D+00 0.856D+00
 Gap=     0.500 Goal=   None    Shift=    0.000
 RMSDP=5.30D-06 MaxDP=1.61D-04 DE=-2.15D-05 OVMax= 3.24D-04

 Cycle   7  Pass 1  IDiag  1:
 E= -389.155204372977     Delta-E=       -0.000000841370 Rises=F Damp=F
 DIIS: error= 1.03D-05 at cycle   7 NSaved=   7.
 NSaved= 7 IEnMin= 7 EnMin= -389.155204372977     IErMin= 7 ErrMin= 1.03D-05
 ErrMax= 1.03D-05  0.00D+00 EMaxC= 1.00D-01 BMatC= 5.44D-08 BMatP= 5.50D-07
 IDIUse=1 WtCom= 1.00D+00 WtEn= 0.00D+00
 Coeff-Com: -0.494D-04 0.464D-03 0.301D-02-0.105D-01-0.468D-01 0.145D+00
 Coeff-Com:  0.909D+00
 Coeff:     -0.494D-04 0.464D-03 0.301D-02-0.105D-01-0.468D-01 0.145D+00
 Coeff:      0.909D+00
 Gap=     0.500 Goal=   None    Shift=    0.000
 RMSDP=1.71D-06 MaxDP=4.10D-05 DE=-8.41D-07 OVMax= 8.43D-05

 Cycle   8  Pass 1  IDiag  1:
 E= -389.155204461944     Delta-E=       -0.000000088967 Rises=F Damp=F
 DIIS: error= 3.51D-06 at cycle   8 NSaved=   8.
 NSaved= 8 IEnMin= 8 EnMin= -389.155204461944     IErMin= 8 ErrMin= 3.51D-06
 ErrMax= 3.51D-06  0.00D+00 EMaxC= 1.00D-01 BMatC= 5.10D-09 BMatP= 5.44D-08
 IDIUse=1 WtCom= 1.00D+00 WtEn= 0.00D+00
 Coeff-Com: -0.581D-04 0.249D-03 0.208D-02 0.315D-02-0.171D-01-0.804D-01
 Coeff-Com: -0.123D+00 0.121D+01
 Coeff:     -0.581D-04 0.249D-03 0.208D-02 0.315D-02-0.171D-01-0.804D-01
 Coeff:     -0.123D+00 0.121D+01
 Gap=     0.500 Goal=   None    Shift=    0.000
 RMSDP=7.85D-07 MaxDP=2.41D-05 DE=-8.90D-08 OVMax= 5.81D-05

 Cycle   9  Pass 1  IDiag  1:
 E= -389.155204477826     Delta-E=       -0.000000015882 Rises=F Damp=F
 DIIS: error= 1.46D-06 at cycle   9 NSaved=   9.
 NSaved= 9 IEnMin= 9 EnMin= -389.155204477826     IErMin= 9 ErrMin= 1.46D-06
 ErrMax= 1.46D-06  0.00D+00 EMaxC= 1.00D-01 BMatC= 7.38D-10 BMatP= 5.10D-09
 IDIUse=1 WtCom= 1.00D+00 WtEn= 0.00D+00
 Coeff-Com:  0.927D-05-0.689D-04-0.479D-03 0.144D-02 0.385D-02 0.622D-04
 Coeff-Com: -0.865D-01-0.120D+00 0.120D+01
 Coeff:      0.927D-05-0.689D-04-0.479D-03 0.144D-02 0.385D-02 0.622D-04
 Coeff:     -0.865D-01-0.120D+00 0.120D+01
 Gap=     0.500 Goal=   None    Shift=    0.000
 RMSDP=2.99D-07 MaxDP=1.24D-05 DE=-1.59D-08 OVMax= 2.71D-05

 Cycle  10  Pass 1  IDiag  1:
 E= -389.155204480255     Delta-E=       -0.000000002429 Rises=F Damp=F
 DIIS: error= 3.98D-07 at cycle  10 NSaved=  10.
 NSaved=10 IEnMin=10 EnMin= -389.155204480255     IErMin=10 ErrMin= 3.98D-07
 ErrMax= 3.98D-07  0.00D+00 EMaxC= 1.00D-01 BMatC= 1.22D-10 BMatP= 7.38D-10
 IDIUse=1 WtCom= 1.00D+00 WtEn= 0.00D+00
 Coeff-Com:  0.953D-05-0.465D-04-0.370D-03-0.135D-03 0.234D-02 0.142D-01
 Coeff-Com:  0.592D-02-0.211D+00 0.144D+00 0.105D+01
 Coeff:      0.953D-05-0.465D-04-0.370D-03-0.135D-03 0.234D-02 0.142D-01
 Coeff:      0.592D-02-0.211D+00 0.144D+00 0.105D+01
 Gap=     0.500 Goal=   None    Shift=    0.000
 RMSDP=1.24D-07 MaxDP=3.07D-06 DE=-2.43D-09 OVMax= 9.88D-06

 Cycle  11  Pass 1  IDiag  1:
 E= -389.155204480575     Delta-E=       -0.000000000320 Rises=F Damp=F
 DIIS: error= 1.55D-07 at cycle  11 NSaved=  11.
 NSaved=11 IEnMin=11 EnMin= -389.155204480575     IErMin=11 ErrMin= 1.55D-07
 ErrMax= 1.55D-07  0.00D+00 EMaxC= 1.00D-01 BMatC= 9.55D-12 BMatP= 1.22D-10
 IDIUse=1 WtCom= 1.00D+00 WtEn= 0.00D+00
 Coeff-Com:  0.397D-06 0.827D-06 0.909D-06-0.149D-03-0.305D-03 0.278D-02
 Coeff-Com:  0.110D-01-0.153D-01-0.107D+00 0.163D+00 0.945D+00
 Coeff:      0.397D-06 0.827D-06 0.909D-06-0.149D-03-0.305D-03 0.278D-02
 Coeff:      0.110D-01-0.153D-01-0.107D+00 0.163D+00 0.945D+00
 Gap=     0.500 Goal=   None    Shift=    0.000
 RMSDP=2.77D-08 MaxDP=1.16D-06 DE=-3.20D-10 OVMax= 2.51D-06

 Cycle  12  Pass 1  IDiag  1:
 E= -389.155204480584     Delta-E=       -0.000000000009 Rises=F Damp=F
 DIIS: error= 3.63D-08 at cycle  12 NSaved=  12.
 NSaved=12 IEnMin=12 EnMin= -389.155204480584     IErMin=12 ErrMin= 3.63D-08
 ErrMax= 3.63D-08  0.00D+00 EMaxC= 1.00D-01 BMatC= 1.17D-12 BMatP= 9.55D-12
 IDIUse=1 WtCom= 1.00D+00 WtEn= 0.00D+00
 Coeff-Com: -0.102D-05 0.547D-05 0.429D-04 0.323D-05-0.343D-03-0.126D-02
 Coeff-Com:  0.366D-03 0.217D-01-0.321D-01-0.113D+00 0.979D-01 0.103D+01
 Coeff:     -0.102D-05 0.547D-05 0.429D-04 0.323D-05-0.343D-03-0.126D-02
 Coeff:      0.366D-03 0.217D-01-0.321D-01-0.113D+00 0.979D-01 0.103D+01
 Gap=     0.500 Goal=   None    Shift=    0.000
 RMSDP=1.18D-08 MaxDP=3.33D-07 DE=-9.44D-12 OVMax= 8.47D-07

 Cycle  13  Pass 1  IDiag  1:
 E= -389.155204480597     Delta-E=       -0.000000000013 Rises=F Damp=F
 DIIS: error= 1.06D-08 at cycle  13 NSaved=  13.
 NSaved=13 IEnMin=13 EnMin= -389.155204480597     IErMin=13 ErrMin= 1.06D-08
 ErrMax= 1.06D-08  0.00D+00 EMaxC= 1.00D-01 BMatC= 5.47D-14 BMatP= 1.17D-12
 IDIUse=1 WtCom= 1.00D+00 WtEn= 0.00D+00
 Coeff-Com: -0.122D-06 0.462D-06 0.389D-05 0.136D-04-0.170D-04-0.298D-03
 Coeff-Com: -0.849D-03 0.352D-02 0.515D-02-0.212D-01-0.612D-01 0.111D+00
 Coeff-Com:  0.964D+00
 Coeff:     -0.122D-06 0.462D-06 0.389D-05 0.136D-04-0.170D-04-0.298D-03
 Coeff:     -0.849D-03 0.352D-02 0.515D-02-0.212D-01-0.612D-01 0.111D+00
 Coeff:      0.964D+00
 Gap=     0.500 Goal=   None    Shift=    0.000
 RMSDP=2.13D-09 MaxDP=7.03D-08 DE=-1.26D-11 OVMax= 1.05D-07

 SCF Done:  E(RHF) =  -389.155204481     A.U. after   13 cycles
            NFock= 13  Conv=0.21D-08     -V/T= 2.0014
 KE= 3.886257977394D+02 PE=-1.937501701457D+03 EE= 6.432866973725D+02
 Leave Link  502 at Fri Sep 17 13:33:09 2021, MaxMem=   524288000 cpu:              23.4 elap:              23.9
 (Enter /opt/gaussian/g16_legacy/l801.exe)
 ExpMin= 1.61D-01 ExpMax= 3.05D+03 ExpMxC= 4.57D+02 IAcc=3 IRadAn=         5 AccDes= 0.00D+00
 HarFok:  IExCor=  205 AccDes= 0.00D+00 IRadAn=         5 IDoV=-2 UseB2=F ITyADJ=14
 ICtDFT= 12500011 ScaDFX=  1.000000  1.000000  1.000000  1.000000
 Largest valence mixing into a core orbital is  1.98D-04
 Largest core mixing into a valence orbital is  3.52D-05
 Range of M.O.s used for correlation:    11   240
 NBasis=   240 NAE=    39 NBE=    39 NFC=    10 NFV=     0
 NROrb=    230 NOA=    29 NOB=    29 NVA=   201 NVB=   201
 Leave Link  801 at Fri Sep 17 13:33:10 2021, MaxMem=   524288000 cpu:               0.9 elap:               1.1
 (Enter /opt/gaussian/g16_legacy/l906.exe)
 Frozen-core derivative calculation, NFC=  10 NFV=   0.
 FulOut=F Deriv=T AODrv=T NAtomX=    28
   MMem=          88  MDisk=          29 MDiskD=          29
  W3Min=     2246400 MinDsk=     2795480 NBas6D=         240
 NBas2D=       29244    NTT=       28920    LW2=     2040000
    MDV=   523626386 MDiskM=       30186 NBas2p=       24383
 Fully direct method using O(ONN) memory.
 IMap=   1   2   3   4   5   6   7   8   9  10  11  12  13  14  15  16  17  18  19  20
 IMap=  21  22  23  24  25  26  27  28  29  30  31  32  33  34  35  36  37  38  39
 JobTyp=1 Pass  1:  I=  11 to  39 NPSUse=  1 ParTrn=F ParDer=F DoDerP=T.
 Spin components of T(2) and E(2):
     alpha-alpha T2 =       0.5715196545D-01 E2=     -0.1638031872D+00
     alpha-beta  T2 =       0.3618186759D+00 E2=     -0.1089340234D+01
     beta-beta   T2 =       0.5715196545D-01 E2=     -0.1638031872D+00
 The integrals were generated   1 times.
 ANorm=    0.1214957862D+01
 E2 =    -0.1416946609D+01 EUMP2 =    -0.39057215108929D+03
 Leave Link  906 at Fri Sep 17 13:36:02 2021, MaxMem=   524288000 cpu:             172.0 elap:             172.2
 (Enter /opt/gaussian/g16_legacy/l1002.exe)
 Minotr:  Closed shell wavefunction.
          Computing MP2/KS-MP2 derivatives.
          Using Z-Vector for PSCF gradient.
          Skipping F1 and S1 gradient terms here.
          IDoAtm=1111111111111111111111111111
          Frozen-core window.
          Direct CPHF calculation.
          Differentiating once with respect to electric field.
                with respect to dipole field.
          Differentiating once with respect to nuclear coordinates.
          Requested convergence is 1.0D-10 RMS, and 1.0D-09 maximum.
          NewPWx=F KeepS1=T KeepF1=T KeepIn=T MapXYZ=F SortEE=F KeepMc=T.
 Keep R1 ints in memory in canonical form, NReq=425201067.
 FoFCou: FMM=F IPFlag=           0 FMFlag=           0 FMFlg1=           0
         NFxFlg=           0 DoJE=F BraDBF=F KetDBF=F FulRan=T
         wScrn=  0.000000 ICntrl=       600 IOpCl=  0 I1Cent=           0 NGrid=           0
         NMat0=    1 NMatS0=  28920 NMatT0=    0 NMatD0=    1 NMtDS0=    0 NMtDT0=    0
 Symmetry not used in FoFCou.
 Two-electron integral symmetry not used.
          MDV=     524288000 using IRadAn=       5.
          Solving linear equations separately, MaxMat=       0.
          There are     1 degrees of freedom in the 1st order CPHF.  IDoFFX=0 NUNeed=     1.
 LinEq1:  Iter=  0 NonCon=     1 RMS=2.55D-03 Max=3.76D-02 NDo=     1
 AX will form     1 AO Fock derivatives at one time.
 LinEq1:  Iter=  1 NonCon=     1 RMS=6.90D-04 Max=9.74D-03 NDo=     1
 LinEq1:  Iter=  2 NonCon=     1 RMS=1.61D-04 Max=4.14D-03 NDo=     1
 LinEq1:  Iter=  3 NonCon=     1 RMS=4.31D-05 Max=5.07D-04 NDo=     1
 LinEq1:  Iter=  4 NonCon=     1 RMS=1.99D-05 Max=8.55D-04 NDo=     1
 LinEq1:  Iter=  5 NonCon=     1 RMS=5.06D-06 Max=8.26D-05 NDo=     1
 LinEq1:  Iter=  6 NonCon=     1 RMS=1.63D-06 Max=2.68D-05 NDo=     1
 LinEq1:  Iter=  7 NonCon=     1 RMS=4.13D-07 Max=4.19D-06 NDo=     1
 LinEq1:  Iter=  8 NonCon=     1 RMS=1.01D-07 Max=1.86D-06 NDo=     1
 LinEq1:  Iter=  9 NonCon=     1 RMS=2.33D-08 Max=6.32D-07 NDo=     1
 LinEq1:  Iter= 10 NonCon=     1 RMS=6.42D-09 Max=1.62D-07 NDo=     1
 LinEq1:  Iter= 11 NonCon=     1 RMS=1.89D-09 Max=3.63D-08 NDo=     1
 LinEq1:  Iter= 12 NonCon=     1 RMS=4.12D-10 Max=7.21D-09 NDo=     1
 LinEq1:  Iter= 13 NonCon=     1 RMS=1.04D-10 Max=9.01D-10 NDo=     1
 LinEq1:  Iter= 14 NonCon=     1 RMS=4.02D-11 Max=1.42D-09 NDo=     1
 LinEq1:  Iter= 15 NonCon=     0 RMS=1.24D-11 Max=1.74D-10 NDo=     1
 Linear equations converged to 1.000D-10 1.000D-09 after    15 iterations.
 End of Minotr F.D. properties file   721 does not exist.
 End of Minotr F.D. properties file   722 does not exist.
 End of Minotr F.D. properties file   788 does not exist.
 Leave Link 1002 at Fri Sep 17 13:36:30 2021, MaxMem=   524288000 cpu:              27.5 elap:              27.5
 (Enter /opt/gaussian/g16_legacy/l601.exe)
 Copying SCF densities to generalized density rwf, IOpCl= 0 IROHF=0.

 **********************************************************************

            Population analysis using the SCF density.

 **********************************************************************

 Orbital symmetries:
       Occupied  (A) (A) (A) (A) (A) (A) (A) (A) (A) (A) (A) (A)
                 (A) (A) (A) (A) (A) (A) (A) (A) (A) (A) (A) (A)
                 (A) (A) (A) (A) (A) (A) (A) (A) (A) (A) (A) (A)
                 (A) (A) (A)
       Virtual   (A) (A) (A) (A) (A) (A) (A) (A) (A) (A) (A) (A)
                 (A) (A) (A) (A) (A) (A) (A) (A) (A) (A) (A) (A)
                 (A) (A) (A) (A) (A) (A) (A) (A) (A) (A) (A) (A)
                 (A) (A) (A) (A) (A) (A) (A) (A) (A) (A) (A) (A)
                 (A) (A) (A) (A) (A) (A) (A) (A) (A) (A) (A) (A)
                 (A) (A) (A) (A) (A) (A) (A) (A) (A) (A) (A) (A)
                 (A) (A) (A) (A) (A) (A) (A) (A) (A) (A) (A) (A)
                 (A) (A) (A) (A) (A) (A) (A) (A) (A) (A) (A) (A)
                 (A) (A) (A) (A) (A) (A) (A) (A) (A) (A) (A) (A)
                 (A) (A) (A) (A) (A) (A) (A) (A) (A) (A) (A) (A)
                 (A) (A) (A) (A) (A) (A) (A) (A) (A) (A) (A) (A)
                 (A) (A) (A) (A) (A) (A) (A) (A) (A) (A) (A) (A)
                 (A) (A) (A) (A) (A) (A) (A) (A) (A) (A) (A) (A)
                 (A) (A) (A) (A) (A) (A) (A) (A) (A) (A) (A) (A)
                 (A) (A) (A) (A) (A) (A) (A) (A) (A) (A) (A) (A)
                 (A) (A) (A) (A) (A) (A) (A) (A) (A) (A) (A) (A)
                 (A) (A) (A) (A) (A) (A) (A) (A) (A)
 The electronic state is 1-A.
 Alpha  occ. eigenvalues --  -11.23061 -11.22505 -11.22000 -11.21922 -11.21883
 Alpha  occ. eigenvalues --  -11.21650 -11.21554 -11.21485 -11.21456 -11.21437
 Alpha  occ. eigenvalues --   -1.10623  -1.08326  -1.01911  -0.98012  -0.93647
 Alpha  occ. eigenvalues --   -0.91776  -0.86754  -0.82684  -0.70599  -0.69343
 Alpha  occ. eigenvalues --   -0.64583  -0.61545  -0.60102  -0.59031  -0.58088
 Alpha  occ. eigenvalues --   -0.56803  -0.55367  -0.55148  -0.53550  -0.51982
 Alpha  occ. eigenvalues --   -0.51716  -0.51322  -0.50592  -0.49228  -0.48275
 Alpha  occ. eigenvalues --   -0.46012  -0.44274  -0.33355  -0.31525
 Alpha virt. eigenvalues --    0.18455   0.19493   0.22038   0.24453   0.25183
 Alpha virt. eigenvalues --    0.27142   0.28395   0.28931   0.30250   0.30504
 Alpha virt. eigenvalues --    0.31237   0.32116   0.33135   0.33436   0.34031
 Alpha virt. eigenvalues --    0.35677   0.35773   0.36970   0.38998   0.40648
 Alpha virt. eigenvalues --    0.41063   0.42593   0.43321   0.44192   0.45150
 Alpha virt. eigenvalues --    0.51685   0.54047   0.61170   0.62445   0.70139
 Alpha virt. eigenvalues --    0.71102   0.71887   0.74279   0.76417   0.76615
 Alpha virt. eigenvalues --    0.76877   0.78796   0.79454   0.81139   0.82035
 Alpha virt. eigenvalues --    0.83812   0.85655   0.88078   0.91265   0.92027
 Alpha virt. eigenvalues --    0.92897   0.95178   0.97058   0.98262   0.99207
 Alpha virt. eigenvalues --    0.99752   1.00202   1.02301   1.03925   1.06180
 Alpha virt. eigenvalues --    1.07863   1.08638   1.08809   1.11199   1.12390
 Alpha virt. eigenvalues --    1.12560   1.13433   1.14584   1.14925   1.15820
 Alpha virt. eigenvalues --    1.16163   1.16403   1.18224   1.18705   1.20092
 Alpha virt. eigenvalues --    1.20661   1.22063   1.22855   1.25017   1.27540
 Alpha virt. eigenvalues --    1.34170   1.40670   1.41849   1.43739   1.45169
 Alpha virt. eigenvalues --    1.47559   1.53475   1.56255   1.56978   1.58246
 Alpha virt. eigenvalues --    1.59849   1.62721   1.65796   1.69518   1.70790
 Alpha virt. eigenvalues --    1.75330   1.82524   1.92034   1.92193   1.95500
 Alpha virt. eigenvalues --    1.98631   2.01126   2.02850   2.04183   2.08701
 Alpha virt. eigenvalues --    2.09245   2.11122   2.11380   2.13104   2.14506
 Alpha virt. eigenvalues --    2.15427   2.17689   2.19724   2.23577   2.27382
 Alpha virt. eigenvalues --    2.28337   2.29992   2.32197   2.34975   2.35568
 Alpha virt. eigenvalues --    2.35646   2.35782   2.39323   2.39851   2.40351
 Alpha virt. eigenvalues --    2.41280   2.41829   2.43035   2.45163   2.45384
 Alpha virt. eigenvalues --    2.47036   2.48340   2.49334   2.50337   2.54524
 Alpha virt. eigenvalues --    2.56586   2.57720   2.61274   2.62185   2.64353
 Alpha virt. eigenvalues --    2.66342   2.67161   2.72030   2.72993   2.73749
 Alpha virt. eigenvalues --    2.75721   2.77700   2.81090   2.82803   2.85160
 Alpha virt. eigenvalues --    2.87728   2.89152   2.91920   2.93443   2.94435
 Alpha virt. eigenvalues --    2.97093   2.99034   3.01163   3.02601   3.05101
 Alpha virt. eigenvalues --    3.05822   3.06629   3.08506   3.13017   3.15940
 Alpha virt. eigenvalues --    3.17139   3.18163   3.19614   3.20681   3.21262
 Alpha virt. eigenvalues --    3.23191   3.24409   3.26458   3.27244   3.36664
 Alpha virt. eigenvalues --    3.39075   3.44609   3.45616   3.55557   3.57293
 Alpha virt. eigenvalues --    3.58697   3.61063   3.66888   3.73946   3.78198
 Alpha virt. eigenvalues --    3.78868   3.80510   3.81328   3.82329   3.82836
 Alpha virt. eigenvalues --    3.84213   3.85752   3.87657   3.89509   3.91175
 Alpha virt. eigenvalues --    3.95896   4.59093   4.62633   4.74429   4.82816
 Alpha virt. eigenvalues --    4.88835   4.92669   4.93351   5.07549   5.10287
 Alpha virt. eigenvalues --    5.16869
          Condensed to atoms (all electrons):
               1          2          3          4          5          6
     1  C    5.001842   0.412347   0.413507   0.340277  -0.058745   0.003676
     2  H    0.412347   0.571703  -0.030237  -0.040529   0.003237  -0.000103
     3  H    0.413507  -0.030237   0.588524  -0.045060  -0.004692   0.000081
     4  C    0.340277  -0.040529  -0.045060   4.955080   0.349339  -0.041408
     5  C   -0.058745   0.003237  -0.004692   0.349339   4.896450   0.406184
     6  H    0.003676  -0.000103   0.000081  -0.041408   0.406184   0.571021
     7  H   -0.003553  -0.000016   0.002571  -0.043072   0.397373  -0.027612
     8  H   -0.000531  -0.000030  -0.000276  -0.045814   0.400281  -0.028075
     9  C   -0.044042  -0.002231   0.001918   0.698826  -0.045938  -0.002739
    10  H    0.003079   0.000060  -0.000114  -0.036528  -0.006482   0.002221
    11  C   -0.007064  -0.002136   0.000138  -0.050685   0.003424   0.000137
    12  H    0.000227   0.000172   0.000028  -0.001412  -0.000116  -0.000004
    13  H   -0.001829  -0.001334   0.000004  -0.000418   0.000092   0.000004
    14  H    0.000232  -0.000034  -0.000010   0.000593  -0.000100  -0.000009
    15  C   -0.000101  -0.000042  -0.000000   0.000002  -0.000000   0.000000
    16  H   -0.000004   0.000001   0.000000   0.000000  -0.000000   0.000000
    17  H   -0.000003  -0.000002   0.000002   0.000000  -0.000000   0.000000
    18  H    0.000022  -0.000005  -0.000001  -0.000000   0.000000  -0.000000
    19  C   -0.003607   0.001046   0.000615   0.000006  -0.000002   0.000000
    20  C    0.000597   0.000160  -0.000016  -0.000017  -0.000000  -0.000000
    21  H    0.000077  -0.000076  -0.000001  -0.000002   0.000000  -0.000000
    22  H   -0.000041   0.000014   0.000000   0.000001  -0.000000   0.000000
    23  H   -0.000053  -0.000052  -0.000012  -0.000027  -0.000000   0.000000
    24  C   -0.063065  -0.000806  -0.000606   0.006130  -0.000158   0.000003
    25  H    0.000004   0.000213   0.001003  -0.000155   0.000010  -0.000000
    26  C    0.326222  -0.039856  -0.044602  -0.057359  -0.000188  -0.000097
    27  H   -0.045137   0.004291  -0.002605  -0.001850  -0.000393  -0.000025
    28  H   -0.040300  -0.002146   0.004203  -0.001436   0.000317  -0.000010
               7          8          9         10         11         12
     1  C   -0.003553  -0.000531  -0.044042   0.003079  -0.007064   0.000227
     2  H   -0.000016  -0.000030  -0.002231   0.000060  -0.002136   0.000172
     3  H    0.002571  -0.000276   0.001918  -0.000114   0.000138   0.000028
     4  C   -0.043072  -0.045814   0.698826  -0.036528  -0.050685  -0.001412
     5  C    0.397373   0.400281  -0.045938  -0.006482   0.003424  -0.000116
     6  H   -0.027612  -0.028075  -0.002739   0.002221   0.000137  -0.000004
     7  H    0.593652  -0.035010  -0.000426   0.000248  -0.000114   0.000021
     8  H   -0.035010   0.594764  -0.001033   0.000123  -0.000100  -0.000005
     9  C   -0.000426  -0.001033   4.939976   0.404875   0.337725  -0.044355
    10  H    0.000248   0.000123   0.404875   0.559334  -0.043630  -0.000221
    11  C   -0.000114  -0.000100   0.337725  -0.043630   4.906213   0.400024
    12  H    0.000021  -0.000005  -0.044355  -0.000221   0.400024   0.584258
    13  H   -0.000001   0.000000  -0.041933   0.003314   0.408016  -0.026858
    14  H   -0.000004   0.000015  -0.042837  -0.002644   0.403004  -0.033277
    15  C   -0.000000  -0.000000  -0.000000   0.000000  -0.000000   0.000000
    16  H    0.000000   0.000000   0.000000   0.000000  -0.000000   0.000000
    17  H   -0.000000  -0.000000  -0.000000   0.000000   0.000000  -0.000000
    18  H   -0.000000   0.000000  -0.000000  -0.000000   0.000000  -0.000000
    19  C    0.000000   0.000000   0.000001   0.000000   0.000007  -0.000000
    20  C   -0.000000  -0.000000   0.000010  -0.000000  -0.000097   0.000002
    21  H   -0.000000   0.000000   0.000000  -0.000000  -0.000003  -0.000000
    22  H    0.000000   0.000000   0.000000   0.000000   0.000002   0.000000
    23  H   -0.000000   0.000000  -0.000032   0.000000   0.000040  -0.000008
    24  C    0.000001  -0.000086   0.000070   0.000002  -0.000032   0.000002
    25  H   -0.000002   0.000012  -0.000002  -0.000000   0.000000   0.000000
    26  C    0.000027   0.000810  -0.004366  -0.000116   0.000690  -0.000050
    27  H    0.000093  -0.000187   0.000514   0.000004  -0.000030  -0.000000
    28  H    0.000012  -0.000009   0.001215  -0.000044   0.000071   0.000023
              13         14         15         16         17         18
     1  C   -0.001829   0.000232  -0.000101  -0.000004  -0.000003   0.000022
     2  H   -0.001334  -0.000034  -0.000042   0.000001  -0.000002  -0.000005
     3  H    0.000004  -0.000010  -0.000000   0.000000   0.000002  -0.000001
     4  C   -0.000418   0.000593   0.000002   0.000000   0.000000  -0.000000
     5  C    0.000092  -0.000100  -0.000000  -0.000000  -0.000000   0.000000
     6  H    0.000004  -0.000009   0.000000   0.000000   0.000000  -0.000000
     7  H   -0.000001  -0.000004  -0.000000   0.000000  -0.000000  -0.000000
     8  H    0.000000   0.000015  -0.000000   0.000000  -0.000000   0.000000
     9  C   -0.041933  -0.042837  -0.000000   0.000000  -0.000000  -0.000000
    10  H    0.003314  -0.002644   0.000000   0.000000   0.000000  -0.000000
    11  C    0.408016   0.403004  -0.000000  -0.000000   0.000000   0.000000
    12  H   -0.026858  -0.033277   0.000000   0.000000  -0.000000  -0.000000
    13  H    0.573897  -0.030011   0.000000  -0.000000  -0.000000  -0.000000
    14  H   -0.030011   0.586782  -0.000000  -0.000000  -0.000000   0.000000
    15  C    0.000000  -0.000000   4.903214   0.399260   0.405434   0.396995
    16  H   -0.000000  -0.000000   0.399260   0.593088  -0.027558  -0.034901
    17  H   -0.000000  -0.000000   0.405434  -0.027558   0.568009  -0.027368
    18  H   -0.000000   0.000000   0.396995  -0.034901  -0.027368   0.594280
    19  C   -0.000013   0.000000   0.352284  -0.045771  -0.040397  -0.044303
    20  C    0.000009  -0.000004  -0.065372  -0.001106   0.003695  -0.002139
    21  H    0.000034   0.000000  -0.003429  -0.000507   0.000010   0.002846
    22  H   -0.000006  -0.000000  -0.001684   0.002553  -0.000079  -0.000371
    23  H    0.000571   0.000042   0.003677  -0.000023  -0.000108  -0.000072
    24  C    0.000003  -0.000004  -0.044861  -0.001135  -0.002387  -0.000547
    25  H   -0.000001   0.000000  -0.006748   0.000150   0.002177   0.000235
    26  C   -0.000212   0.000091   0.003152  -0.000124   0.000146  -0.000086
    27  H   -0.000008   0.000000  -0.000102   0.000012  -0.000011  -0.000002
    28  H   -0.000251  -0.000079   0.000071   0.000004   0.000006  -0.000004
              19         20         21         22         23         24
     1  C   -0.003607   0.000597   0.000077  -0.000041  -0.000053  -0.063065
     2  H    0.001046   0.000160  -0.000076   0.000014  -0.000052  -0.000806
     3  H    0.000615  -0.000016  -0.000001   0.000000  -0.000012  -0.000606
     4  C    0.000006  -0.000017  -0.000002   0.000001  -0.000027   0.006130
     5  C   -0.000002  -0.000000   0.000000  -0.000000  -0.000000  -0.000158
     6  H    0.000000  -0.000000  -0.000000   0.000000   0.000000   0.000003
     7  H    0.000000  -0.000000  -0.000000   0.000000  -0.000000   0.000001
     8  H    0.000000  -0.000000   0.000000   0.000000   0.000000  -0.000086
     9  C    0.000001   0.000010   0.000000   0.000000  -0.000032   0.000070
    10  H    0.000000  -0.000000  -0.000000   0.000000   0.000000   0.000002
    11  C    0.000007  -0.000097  -0.000003   0.000002   0.000040  -0.000032
    12  H   -0.000000   0.000002  -0.000000   0.000000  -0.000008   0.000002
    13  H   -0.000013   0.000009   0.000034  -0.000006   0.000571   0.000003
    14  H    0.000000  -0.000004   0.000000  -0.000000   0.000042  -0.000004
    15  C    0.352284  -0.065372  -0.003429  -0.001684   0.003677  -0.044861
    16  H   -0.045771  -0.001106  -0.000507   0.002553  -0.000023  -0.001135
    17  H   -0.040397   0.003695   0.000010  -0.000079  -0.000108  -0.002387
    18  H   -0.044303  -0.002139   0.002846  -0.000371  -0.000072  -0.000547
    19  C    4.918277   0.348394  -0.043929  -0.043827  -0.037052   0.698165
    20  C    0.348394   4.909216   0.402446   0.398276   0.406149  -0.043323
    21  H   -0.043929   0.402446   0.586203  -0.033096  -0.030023   0.000448
    22  H   -0.043827   0.398276  -0.033096   0.582507  -0.026269  -0.000842
    23  H   -0.037052   0.406149  -0.030023  -0.026269   0.568181  -0.002870
    24  C    0.698165  -0.043323   0.000448  -0.000842  -0.002870   4.961490
    25  H   -0.036145   0.003365  -0.000110  -0.000126   0.000059   0.402025
    26  C   -0.048266  -0.007534   0.000286   0.000188  -0.001944   0.339915
    27  H    0.000914   0.000169  -0.000012   0.000032   0.000031  -0.043347
    28  H    0.000822  -0.002065  -0.000043   0.000056  -0.001168  -0.043804
              25         26         27         28
     1  C    0.000004   0.326222  -0.045137  -0.040300
     2  H    0.000213  -0.039856   0.004291  -0.002146
     3  H    0.001003  -0.044602  -0.002605   0.004203
     4  C   -0.000155  -0.057359  -0.001850  -0.001436
     5  C    0.000010  -0.000188  -0.000393   0.000317
     6  H   -0.000000  -0.000097  -0.000025  -0.000010
     7  H   -0.000002   0.000027   0.000093   0.000012
     8  H    0.000012   0.000810  -0.000187  -0.000009
     9  C   -0.000002  -0.004366   0.000514   0.001215
    10  H   -0.000000  -0.000116   0.000004  -0.000044
    11  C    0.000000   0.000690  -0.000030   0.000071
    12  H    0.000000  -0.000050  -0.000000   0.000023
    13  H   -0.000001  -0.000212  -0.000008  -0.000251
    14  H    0.000000   0.000091   0.000000  -0.000079
    15  C   -0.006748   0.003152  -0.000102   0.000071
    16  H    0.000150  -0.000124   0.000012   0.000004
    17  H    0.002177   0.000146  -0.000011   0.000006
    18  H    0.000235  -0.000086  -0.000002  -0.000004
    19  C   -0.036145  -0.048266   0.000914   0.000822
    20  C    0.003365  -0.007534   0.000169  -0.002065
    21  H   -0.000110   0.000286  -0.000012  -0.000043
    22  H   -0.000126   0.000188   0.000032   0.000056
    23  H    0.000059  -0.001944   0.000031  -0.001168
    24  C    0.402025   0.339915  -0.043347  -0.043804
    25  H    0.558501  -0.041268  -0.003486   0.003230
    26  C   -0.041268   4.982334   0.413770   0.414875
    27  H   -0.003486   0.413770   0.588524  -0.029609
    28  H    0.003230   0.414875  -0.029609   0.571235
 Mulliken charges:
               1
     1  C   -0.234032
     2  H    0.126389
     3  H    0.115639
     4  C    0.015518
     5  C   -0.339893
     6  H    0.116754
     7  H    0.115811
     8  H    0.115150
     9  C   -0.155196
    10  H    0.116518
    11  C   -0.355600
    12  H    0.121549
    13  H    0.116930
    14  H    0.118253
    15  C   -0.341751
    16  H    0.116059
    17  H    0.118434
    18  H    0.115422
    19  C    0.022782
    20  C   -0.350815
    21  H    0.118882
    22  H    0.122713
    23  H    0.120963
    24  C   -0.160381
    25  H    0.117059
    26  C   -0.236440
    27  H    0.118452
    28  H    0.124829
 Sum of Mulliken charges =  -0.00000
 Mulliken charges with hydrogens summed into heavy atoms:
               1
     1  C    0.007997
     4  C    0.015518
     5  C    0.007822
     9  C   -0.038677
    11  C    0.001132
    15  C    0.008164
    19  C    0.022782
    20  C    0.011743
    24  C   -0.043322
    26  C    0.006841
 Electronic spatial extent (au):  <R**2>=           2423.6664
 Charge=              0.0000 electrons
 Dipole moment (field-independent basis, Debye):
    X=              0.2950    Y=              0.1263    Z=             -0.0059  Tot=              0.3210
 Quadrupole moment (field-independent basis, Debye-Ang):
   XX=            -64.5106   YY=            -63.6038   ZZ=            -67.0541
   XY=              0.6104   XZ=              0.8630   YZ=             -0.4855
 Traceless Quadrupole moment (field-independent basis, Debye-Ang):
   XX=              0.5456   YY=              1.4523   ZZ=             -1.9979
   XY=              0.6104   XZ=              0.8630   YZ=             -0.4855
 Octapole moment (field-independent basis, Debye-Ang**2):
  XXX=              1.3657  YYY=             -2.7179  ZZZ=              0.1849  XYY=             -0.5682
  XXY=              4.5353  XXZ=             -2.6527  XZZ=              1.5774  YZZ=              1.2278
  YYZ=              1.3700  XYZ=             -0.7522
 Hexadecapole moment (field-independent basis, Debye-Ang**3):
 XXXX=          -2492.2848 YYYY=           -696.1196 ZZZZ=           -174.8245 XXXY=             -2.3440
 XXXZ=             11.9380 YYYX=             -9.3594 YYYZ=             -3.0536 ZZZX=             -0.8349
 ZZZY=             -0.0651 XXYY=           -530.4701 XXZZ=           -456.3142 YYZZ=           -139.1734
 XXYZ=             -4.2452 YYXZ=              3.2001 ZZXY=              4.6988
 N-N= 5.164340018649D+02 E-N=-1.937501701570D+03  KE= 3.886257977394D+02
 No NMR shielding tensors so no spin-rotation constants.
 Leave Link  601 at Fri Sep 17 13:36:30 2021, MaxMem=   524288000 cpu:               0.2 elap:               0.2
 (Enter /opt/gaussian/g16_legacy/l701.exe)
 ... and contract with generalized density number  2.
 Compute integral first derivatives.
 Leave Link  701 at Fri Sep 17 13:36:30 2021, MaxMem=   524288000 cpu:               0.1 elap:               0.1
 (Enter /opt/gaussian/g16_legacy/l702.exe)
 L702 exits ... SP integral derivatives will be done elsewhere.
 Leave Link  702 at Fri Sep 17 13:36:30 2021, MaxMem=   524288000 cpu:               0.0 elap:               0.0
 (Enter /opt/gaussian/g16_legacy/l703.exe)
 Integral derivatives from FoFJK, PRISM(SPDF).
 Compute integral first derivatives, UseDBF=F ICtDFT=           0.
 Calling FoFJK, ICntrl=  10002127 FMM=F ISym2X=0 I1Cent= 0 IOpClX= 0 NMat=1 NMatS=1 NMatT=0.
 FoFJK:  IHMeth= 1 ICntrl=10002127 DoSepK=F KAlg= 0 I1Cent=           0 FoldK=F
 IRaf=         0 NMat=       1 IRICut=       1 DoRegI=T DoRafI=F ISym2E= 0 IDoP0=0 IntGTp=1.
 FoFCou: FMM=F IPFlag=           0 FMFlag=      100000 FMFlg1=         800
         NFxFlg=           0 DoJE=F BraDBF=F KetDBF=F FulRan=T
         wScrn=  0.000000 ICntrl=  10002127 IOpCl=  0 I1Cent=           0 NGrid=           0
         NMat0=    1 NMatS0=      1 NMatT0=    0 NMatD0=    1 NMtDS0=    0 NMtDT0=    0
 Symmetry not used in FoFCou.
 Leave Link  703 at Fri Sep 17 13:36:49 2021, MaxMem=   524288000 cpu:              18.7 elap:              18.7
 (Enter /opt/gaussian/g16_legacy/l716.exe)
 Dipole        = 9.11543739D-02 6.69117439D-02-4.77657673D-03
 ***** Axes restored to original set *****
 -------------------------------------------------------------------
 Center     Atomic                   Forces (Hartrees/Bohr)
 Number     Number              X              Y              Z
 -------------------------------------------------------------------
      1        6           0.007931946   -0.004402715    0.002811674
      2        1          -0.000523657    0.001935012   -0.004254786
      3        1           0.000098902   -0.000002364   -0.003836281
      4        6           0.003760308    0.001159938    0.005133959
      5        6           0.002942167    0.000122979   -0.001078654
      6        1          -0.003628715   -0.001841288    0.000140272
      7        1          -0.001272934    0.001038018   -0.002977092
      8        1           0.000300992    0.000826944    0.003263013
      9        6          -0.002180904    0.002170168   -0.002209127
     10        1          -0.002659480    0.002278917    0.000609575
     11        6          -0.001617292   -0.002101672   -0.000378041
     12        1          -0.001169566   -0.001763763   -0.002710612
     13        1           0.002702845    0.001742648    0.001027909
     14        1          -0.000150656   -0.001052057    0.003275435
     15        6          -0.000403950    0.002713721    0.001919486
     16        1           0.000128437   -0.001992107    0.002727434
     17        1           0.002658700   -0.002701120   -0.002043842
     18        1          -0.001711217    0.000447390   -0.003034321
     19        6           0.000040197    0.002918266    0.004482275
     20        6           0.004453432   -0.000384357   -0.001020247
     21        1          -0.001610016    0.001896467   -0.002674664
     22        1           0.000179069   -0.002208933    0.002204048
     23        1          -0.002752584    0.002111748    0.000145997
     24        6           0.001296627    0.002482797   -0.004402356
     25        1          -0.001469731   -0.003047174   -0.000225878
     26        6          -0.007340081    0.000005206   -0.002955082
     27        1           0.001824405   -0.002060786    0.002040112
     28        1           0.000172757   -0.000291882    0.004019795
 -------------------------------------------------------------------
 Cartesian Forces:  Max     0.007931946 RMS     0.002570878
 Leave Link  716 at Fri Sep 17 13:36:49 2021, MaxMem=   524288000 cpu:               0.0 elap:               0.0
 (Enter /opt/gaussian/g16_legacy/l103.exe)

 GradGradGradGradGradGradGradGradGradGradGradGradGradGradGradGradGradGrad
 Berny optimization.
 FormGI is forming the generalized inverse of G from B-inverse, IUseBI=4.
 Internal  Forces:  Max     0.004885004 RMS     0.001917270
 Search for a local minimum.
 Step number   1 out of a maximum of  138
 All quantities printed in internal units (Hartrees-Bohrs-Radians)
 RMS Force = .19173D-02 SwitMx=.10000D-02 MixMth= 1
 Mixed Optimization -- RFO/linear search
 Second derivative matrix not updated -- first step.
 ITU=  0
     Eigenvalues ---    0.00343   0.00570   0.00671   0.00680   0.00693
     Eigenvalues ---    0.00714   0.00817   0.01219   0.01286   0.01569
     Eigenvalues ---    0.01640   0.02779   0.02784   0.04018   0.04138
     Eigenvalues ---    0.05349   0.05399   0.06978   0.07035   0.07090
     Eigenvalues ---    0.07093   0.07269   0.07301   0.07347   0.07504
     Eigenvalues ---    0.09278   0.09362   0.12767   0.12843   0.15999
     Eigenvalues ---    0.15999   0.16000   0.16000   0.16000   0.16000
     Eigenvalues ---    0.16000   0.16000   0.16000   0.16000   0.16000
     Eigenvalues ---    0.16000   0.16000   0.16000   0.21858   0.21866
     Eigenvalues ---    0.22000   0.22000   0.24994   0.24997   0.24998
     Eigenvalues ---    0.24999   0.29243   0.30873   0.31634   0.31705
     Eigenvalues ---    0.31807   0.31967   0.32783   0.33860   0.33964
     Eigenvalues ---    0.34059   0.34199   0.34228   0.34237   0.34242
     Eigenvalues ---    0.34245   0.34246   0.34254   0.34264   0.34271
     Eigenvalues ---    0.34296   0.34335   0.34547   0.34552   0.34804
     Eigenvalues ---    0.34853   0.55490   0.55566
 RFO step:  Lambda=-2.95963232D-03 EMin= 3.43181026D-03
 Linear search not attempted -- first point.
 Iteration  1 RMS(Cart)=  0.03969776 RMS(Int)=  0.00072339
 Iteration  2 RMS(Cart)=  0.00093473 RMS(Int)=  0.00016626
 Iteration  3 RMS(Cart)=  0.00000043 RMS(Int)=  0.00016626
 ITry= 1 IFail=0 DXMaxC= 1.71D-01 DCOld= 1.00D+10 DXMaxT= 3.00D-01 DXLimC= 3.00D+00 Rises=F
 Variable       Old X    -DE/DX   Delta X   Delta X   Delta X     New X
                                 (Linear)    (Quad)   (Total)
    R1        2.07231  -0.00334   0.00000  -0.00971  -0.00971   2.06260
    R2        2.07568  -0.00282   0.00000  -0.00825  -0.00825   2.06743
    R3        2.86256  -0.00352   0.00000  -0.01130  -0.01130   2.85126
    R4        2.89498   0.00175   0.00000   0.00591   0.00591   2.90090
    R5        2.84818  -0.00044   0.00000  -0.00138  -0.00138   2.84680
    R6        2.54700  -0.00400   0.00000  -0.00717  -0.00717   2.53983
    R7        2.06947  -0.00367   0.00000  -0.01064  -0.01064   2.05882
    R8        2.06918  -0.00219   0.00000  -0.00633  -0.00633   2.06285
    R9        2.06834  -0.00179   0.00000  -0.00519  -0.00519   2.06315
   R10        2.05914  -0.00219   0.00000  -0.00623  -0.00623   2.05291
   R11        2.82733   0.00304   0.00000   0.00918   0.00918   2.83651
   R12        2.06769  -0.00158   0.00000  -0.00456  -0.00456   2.06313
   R13        2.06409  -0.00292   0.00000  -0.00838  -0.00838   2.05571
   R14        2.06886  -0.00258   0.00000  -0.00746  -0.00746   2.06140
   R15        2.06924  -0.00203   0.00000  -0.00588  -0.00588   2.06336
   R16        2.06933  -0.00391   0.00000  -0.01133  -0.01133   2.05799
   R17        2.06903  -0.00196   0.00000  -0.00568  -0.00568   2.06336
   R18        2.84687  -0.00078   0.00000  -0.00244  -0.00244   2.84443
   R19        2.84203  -0.00050   0.00000  -0.00156  -0.00156   2.84047
   R20        2.54632  -0.00329   0.00000  -0.00589  -0.00589   2.54043
   R21        2.06996  -0.00261   0.00000  -0.00758  -0.00758   2.06238
   R22        2.06876  -0.00183   0.00000  -0.00530  -0.00530   2.06345
   R23        2.06417  -0.00284   0.00000  -0.00815  -0.00815   2.05602
   R24        2.05994  -0.00194   0.00000  -0.00552  -0.00552   2.05442
   R25        2.84498  -0.00149   0.00000  -0.00465  -0.00465   2.84033
   R26        2.07390  -0.00242   0.00000  -0.00706  -0.00706   2.06684
   R27        2.06917  -0.00277   0.00000  -0.00803  -0.00803   2.06114
    A1        1.82981   0.00207   0.00000   0.02254   0.02237   1.85218
    A2        1.93016   0.00043   0.00000   0.00924   0.00928   1.93944
    A3        1.91838  -0.00278   0.00000  -0.02023  -0.02027   1.89812
    A4        1.90262  -0.00069   0.00000  -0.00271  -0.00270   1.89992
    A5        1.92006  -0.00194   0.00000  -0.01723  -0.01727   1.90280
    A6        1.95844   0.00283   0.00000   0.00907   0.00911   1.96756
    A7        2.00835   0.00236   0.00000   0.00965   0.00908   2.01743
    A8        2.17072  -0.00489   0.00000  -0.01895  -0.01948   2.15124
    A9        2.10393   0.00254   0.00000   0.01041   0.00983   2.11376
   A10        1.95928  -0.00262   0.00000  -0.01311  -0.01307   1.94621
   A11        1.92478   0.00166   0.00000   0.00903   0.00905   1.93383
   A12        1.92803   0.00228   0.00000   0.01219   0.01221   1.94024
   A13        1.87756   0.00110   0.00000   0.01020   0.01023   1.88778
   A14        1.87710   0.00054   0.00000   0.00557   0.00561   1.88270
   A15        1.89495  -0.00308   0.00000  -0.02472  -0.02472   1.87023
   A16        2.06974  -0.00194   0.00000  -0.01341  -0.01342   2.05632
   A17        2.22504  -0.00186   0.00000  -0.00832  -0.00834   2.21670
   A18        1.98826   0.00381   0.00000   0.02190   0.02188   2.01015
   A19        1.91721   0.00395   0.00000   0.02331   0.02328   1.94048
   A20        1.98123  -0.00299   0.00000  -0.01844  -0.01835   1.96288
   A21        1.91002   0.00238   0.00000   0.01559   0.01554   1.92555
   A22        1.89283  -0.00095   0.00000  -0.00758  -0.00749   1.88535
   A23        1.88718  -0.00309   0.00000  -0.01885  -0.01903   1.86815
   A24        1.87275   0.00052   0.00000   0.00490   0.00497   1.87772
   A25        1.87890   0.00091   0.00000   0.00785   0.00789   1.88679
   A26        1.89486  -0.00313   0.00000  -0.02541  -0.02541   1.86945
   A27        1.92339   0.00175   0.00000   0.00881   0.00884   1.93222
   A28        1.87925   0.00092   0.00000   0.00933   0.00937   1.88862
   A29        1.96053  -0.00276   0.00000  -0.01378  -0.01374   1.94679
   A30        1.92491   0.00220   0.00000   0.01236   0.01238   1.93729
   A31        1.99472   0.00146   0.00000   0.00579   0.00577   2.00049
   A32        2.10579   0.00183   0.00000   0.00727   0.00725   2.11304
   A33        2.18263  -0.00329   0.00000  -0.01295  -0.01297   2.16966
   A34        1.92080  -0.00000   0.00000  -0.00088  -0.00087   1.91993
   A35        1.92157   0.00231   0.00000   0.01171   0.01174   1.93331
   A36        1.97976  -0.00223   0.00000  -0.01026  -0.01024   1.96952
   A37        1.89072  -0.00240   0.00000  -0.02164  -0.02162   1.86910
   A38        1.86359   0.00201   0.00000   0.01708   0.01710   1.88068
   A39        1.88451   0.00023   0.00000   0.00321   0.00324   1.88774
   A40        2.06709  -0.00167   0.00000  -0.01178  -0.01218   2.05490
   A41        2.22711  -0.00225   0.00000  -0.00992  -0.01033   2.21678
   A42        1.98886   0.00393   0.00000   0.02249   0.02207   2.01093
   A43        1.94455   0.00331   0.00000   0.01363   0.01366   1.95820
   A44        1.92088  -0.00239   0.00000  -0.01476  -0.01495   1.90592
   A45        1.92597  -0.00263   0.00000  -0.02486  -0.02493   1.90104
   A46        1.88066   0.00060   0.00000   0.01702   0.01707   1.89773
   A47        1.94670  -0.00054   0.00000  -0.00252  -0.00247   1.94422
   A48        1.84175   0.00155   0.00000   0.01201   0.01175   1.85349
    D1       -2.64259  -0.00174   0.00000  -0.05221  -0.05199  -2.69458
    D2        0.47849  -0.00076   0.00000   0.01010   0.00986   0.48835
    D3       -0.63963   0.00059   0.00000  -0.02154  -0.02130  -0.66093
    D4        2.48144   0.00157   0.00000   0.04076   0.04056   2.52200
[...]
                 (A) (A) (A) (A) (A) (A) (A) (A) (A) (A) (A) (A)
                 (A) (A) (A) (A) (A) (A) (A) (A) (A) (A) (A) (A)
                 (A) (A) (A) (A) (A) (A) (A) (A) (A) (A) (A) (A)
                 (A) (A) (A) (A) (A) (A) (A) (A) (A) (A) (A) (A)
                 (A) (A) (A) (A) (A) (A) (A) (A) (A) (A) (A) (A)
                 (A) (A) (A) (A) (A) (A) (A) (A) (A) (A) (A) (A)
                 (A) (A) (A) (A) (A) (A) (A) (A) (A) (A) (A) (A)
                 (A) (A) (A) (A) (A) (A) (A) (A) (A) (A) (A) (A)
                 (A) (A) (A) (A) (A) (A) (A) (A) (A) (A) (A) (A)
                 (A) (A) (A) (A) (A) (A) (A) (A) (A) (A) (A) (A)
                 (A) (A) (A) (A) (A) (A) (A) (A) (A) (A) (A) (A)
                 (A) (A) (A) (A) (A) (A) (A) (A) (A) (A) (A) (A)
                 (A) (A) (A) (A) (A) (A) (A) (A) (A) (A) (A) (A)
                 (A) (A) (A) (A) (A) (A) (A) (A) (A)
 The electronic state is 1-A.
 Alpha  occ. eigenvalues --  -11.23020 -11.22460 -11.21868 -11.21730 -11.21712
 Alpha  occ. eigenvalues --  -11.21539 -11.21506 -11.21436 -11.21417 -11.21348
 Alpha  occ. eigenvalues --   -1.10821  -1.08492  -1.01823  -0.98143  -0.93838
 Alpha  occ. eigenvalues --   -0.91939  -0.86963  -0.82855  -0.70494  -0.69519
 Alpha  occ. eigenvalues --   -0.64988  -0.61512  -0.60591  -0.58878  -0.58366
 Alpha  occ. eigenvalues --   -0.56774  -0.55298  -0.54966  -0.53295  -0.52261
 Alpha  occ. eigenvalues --   -0.51859  -0.51173  -0.50832  -0.49581  -0.48519
 Alpha  occ. eigenvalues --   -0.46073  -0.44624  -0.33371  -0.31514
 Alpha virt. eigenvalues --    0.18142   0.19779   0.22152   0.24486   0.25192
 Alpha virt. eigenvalues --    0.27439   0.28535   0.28922   0.30318   0.30811
 Alpha virt. eigenvalues --    0.31477   0.32261   0.33202   0.33794   0.34383
 Alpha virt. eigenvalues --    0.35458   0.36114   0.36962   0.39185   0.40602
 Alpha virt. eigenvalues --    0.41328   0.42631   0.43685   0.44252   0.45395
 Alpha virt. eigenvalues --    0.51702   0.54378   0.61070   0.62576   0.70520
 Alpha virt. eigenvalues --    0.71073   0.72196   0.73768   0.76075   0.76177
 Alpha virt. eigenvalues --    0.76620   0.79010   0.79474   0.81070   0.82306
 Alpha virt. eigenvalues --    0.83713   0.85579   0.89117   0.91091   0.91343
 Alpha virt. eigenvalues --    0.92820   0.94745   0.97065   0.98284   0.98818
 Alpha virt. eigenvalues --    0.99710   1.00468   1.01911   1.03844   1.06577
 Alpha virt. eigenvalues --    1.08019   1.08221   1.09393   1.11664   1.12687
 Alpha virt. eigenvalues --    1.13026   1.13870   1.14856   1.15402   1.16045
 Alpha virt. eigenvalues --    1.16257   1.16619   1.18722   1.19116   1.20671
 Alpha virt. eigenvalues --    1.20953   1.23032   1.23885   1.25765   1.28153
 Alpha virt. eigenvalues --    1.34331   1.41722   1.42153   1.44890   1.46395
 Alpha virt. eigenvalues --    1.48456   1.54135   1.55360   1.57256   1.58165
 Alpha virt. eigenvalues --    1.61459   1.63397   1.66485   1.69046   1.69645
 Alpha virt. eigenvalues --    1.73917   1.82243   1.91111   1.93363   1.96231
 Alpha virt. eigenvalues --    1.98688   2.01467   2.02277   2.03941   2.08565
 Alpha virt. eigenvalues --    2.09706   2.10748   2.11744   2.13037   2.14903
 Alpha virt. eigenvalues --    2.15780   2.16940   2.19854   2.23666   2.28347
 Alpha virt. eigenvalues --    2.29590   2.30325   2.33235   2.35347   2.35688
 Alpha virt. eigenvalues --    2.35978   2.36098   2.38923   2.40264   2.41259
 Alpha virt. eigenvalues --    2.42195   2.43169   2.44154   2.45371   2.46084
 Alpha virt. eigenvalues --    2.47201   2.49167   2.49622   2.51174   2.54099
 Alpha virt. eigenvalues --    2.57315   2.58365   2.61888   2.63241   2.64107
 Alpha virt. eigenvalues --    2.67127   2.68175   2.71776   2.73352   2.73474
 Alpha virt. eigenvalues --    2.75815   2.77410   2.80796   2.82635   2.85354
 Alpha virt. eigenvalues --    2.87136   2.89441   2.92178   2.93739   2.94867
 Alpha virt. eigenvalues --    2.97869   2.99094   3.00960   3.02677   3.05807
 Alpha virt. eigenvalues --    3.06402   3.07703   3.09315   3.13762   3.17093
 Alpha virt. eigenvalues --    3.17589   3.19238   3.20046   3.21242   3.22334
 Alpha virt. eigenvalues --    3.24167   3.25050   3.26607   3.27420   3.37866
 Alpha virt. eigenvalues --    3.40355   3.46023   3.46902   3.56200   3.58183
 Alpha virt. eigenvalues --    3.59499   3.62406   3.67928   3.75494   3.78622
 Alpha virt. eigenvalues --    3.80005   3.81570   3.82569   3.83286   3.83898
 Alpha virt. eigenvalues --    3.84750   3.86481   3.87645   3.89820   3.91558
 Alpha virt. eigenvalues --    3.97645   4.59389   4.63170   4.74472   4.82572
 Alpha virt. eigenvalues --    4.88928   4.92582   4.93409   5.07840   5.10766
 Alpha virt. eigenvalues --    5.17766
          Condensed to atoms (all electrons):
               1          2          3          4          5          6
     1  C    5.004768   0.411714   0.414473   0.337355  -0.056085   0.003801
     2  H    0.411714   0.572983  -0.028295  -0.038988   0.003071  -0.000108
     3  H    0.414473  -0.028295   0.587507  -0.046308  -0.004587   0.000106
     4  C    0.337355  -0.038988  -0.046308   4.952603   0.351934  -0.042765
     5  C   -0.056085   0.003071  -0.004587   0.351934   4.891804   0.407087
     6  H    0.003801  -0.000108   0.000106  -0.042765   0.407087   0.568858
     7  H   -0.003698  -0.000034   0.002378  -0.041506   0.397495  -0.026764
     8  H    0.000011  -0.000005  -0.000489  -0.045679   0.400946  -0.027466
     9  C   -0.047991  -0.001860   0.002531   0.697840  -0.046054  -0.002890
    10  H    0.003272   0.000031  -0.000118  -0.037842  -0.006525   0.002385
    11  C   -0.007749  -0.002811   0.000160  -0.050271   0.003364   0.000132
    12  H    0.000152   0.000184   0.000017  -0.000627  -0.000106  -0.000006
    13  H   -0.001745  -0.001657   0.000030  -0.000691   0.000109   0.000005
    14  H    0.000310  -0.000067  -0.000013  -0.000247  -0.000095  -0.000006
    15  C   -0.000099  -0.000043  -0.000004   0.000001  -0.000000   0.000000
    16  H   -0.000005   0.000002   0.000000   0.000000  -0.000000   0.000000
    17  H   -0.000003  -0.000002   0.000003   0.000000  -0.000000   0.000000
    18  H    0.000024  -0.000007  -0.000002  -0.000000   0.000000  -0.000000
    19  C   -0.004325   0.001387   0.000787   0.000041  -0.000003   0.000000
    20  C    0.000587   0.000200  -0.000015  -0.000018  -0.000000  -0.000000
    21  H    0.000130  -0.000135  -0.000002  -0.000005   0.000000  -0.000000
    22  H   -0.000040   0.000022   0.000000   0.000001  -0.000000   0.000000
    23  H   -0.000302  -0.000131  -0.000016  -0.000011  -0.000000   0.000000
    24  C   -0.061827  -0.000504  -0.000900   0.006443  -0.000149   0.000004
    25  H    0.000175   0.000111   0.001011  -0.000152   0.000010  -0.000000
    26  C    0.332330  -0.041801  -0.046074  -0.055544  -0.000661  -0.000109
    27  H   -0.046841   0.004515  -0.001931  -0.002075  -0.000289  -0.000050
    28  H   -0.042369  -0.003118   0.004477  -0.001813   0.000243  -0.000005
               7          8          9         10         11         12
     1  C   -0.003698   0.000011  -0.047991   0.003272  -0.007749   0.000152
     2  H   -0.000034  -0.000005  -0.001860   0.000031  -0.002811   0.000184
     3  H    0.002378  -0.000489   0.002531  -0.000118   0.000160   0.000017
     4  C   -0.041506  -0.045679   0.697840  -0.037842  -0.050271  -0.000627
     5  C    0.397495   0.400946  -0.046054  -0.006525   0.003364  -0.000106
     6  H   -0.026764  -0.027466  -0.002890   0.002385   0.000132  -0.000006
     7  H    0.591921  -0.037541  -0.000373   0.000216  -0.000105   0.000017
     8  H   -0.037541   0.596034  -0.001011   0.000135  -0.000101  -0.000004
     9  C   -0.000373  -0.001011   4.938971   0.404494   0.340494  -0.041523
    10  H    0.000216   0.000135   0.404494   0.558671  -0.041278  -0.001122
    11  C   -0.000105  -0.000101   0.340494  -0.041278   4.900974   0.401144
    12  H    0.000017  -0.000004  -0.041523  -0.001122   0.401144   0.583648
    13  H    0.000002  -0.000003  -0.043903   0.003299   0.409079  -0.027132
    14  H   -0.000004   0.000017  -0.041805  -0.001264   0.402169  -0.035462
    15  C   -0.000000  -0.000000  -0.000000   0.000000  -0.000000   0.000000
    16  H    0.000000   0.000000   0.000000   0.000000   0.000000   0.000000
    17  H   -0.000000  -0.000000  -0.000000   0.000000   0.000000  -0.000000
    18  H   -0.000000   0.000000   0.000000  -0.000000  -0.000000  -0.000000
    19  C    0.000000   0.000000  -0.000001   0.000000   0.000013  -0.000000
    20  C    0.000000  -0.000000   0.000015  -0.000000  -0.000147   0.000004
    21  H   -0.000000   0.000000   0.000000  -0.000000  -0.000009  -0.000000
    22  H    0.000000  -0.000000   0.000000   0.000000   0.000003   0.000000
    23  H   -0.000000   0.000000  -0.000045   0.000000   0.000074  -0.000013
    24  C    0.000004  -0.000111   0.000114   0.000002  -0.000031   0.000002
    25  H   -0.000001   0.000015  -0.000002  -0.000000   0.000000   0.000000
    26  C    0.000086   0.000609  -0.004911  -0.000113   0.000577  -0.000037
    27  H    0.000058   0.000197   0.000760   0.000001  -0.000033  -0.000000
    28  H    0.000006  -0.000015   0.001406  -0.000046  -0.000082   0.000037
              13         14         15         16         17         18
     1  C   -0.001745   0.000310  -0.000099  -0.000005  -0.000003   0.000024
     2  H   -0.001657  -0.000067  -0.000043   0.000002  -0.000002  -0.000007
     3  H    0.000030  -0.000013  -0.000004   0.000000   0.000003  -0.000002
     4  C   -0.000691  -0.000247   0.000001   0.000000   0.000000  -0.000000
     5  C    0.000109  -0.000095  -0.000000  -0.000000  -0.000000   0.000000
     6  H    0.000005  -0.000006   0.000000   0.000000   0.000000  -0.000000
     7  H    0.000002  -0.000004  -0.000000   0.000000  -0.000000  -0.000000
     8  H   -0.000003   0.000017  -0.000000   0.000000  -0.000000   0.000000
     9  C   -0.043903  -0.041805  -0.000000   0.000000  -0.000000   0.000000
    10  H    0.003299  -0.001264   0.000000   0.000000   0.000000  -0.000000
    11  C    0.409079   0.402169  -0.000000   0.000000   0.000000  -0.000000
    12  H   -0.027132  -0.035462   0.000000   0.000000  -0.000000  -0.000000
    13  H    0.577164  -0.029956   0.000000  -0.000000  -0.000000  -0.000000
    14  H   -0.029956   0.586720  -0.000000  -0.000000  -0.000000   0.000000
    15  C    0.000000  -0.000000   4.900112   0.398811   0.406218   0.398238
    16  H   -0.000000  -0.000000   0.398811   0.593607  -0.026549  -0.037806
    17  H   -0.000000  -0.000000   0.406218  -0.026549   0.566018  -0.026703
    18  H   -0.000000   0.000000   0.398238  -0.037806  -0.026703   0.594542
    19  C   -0.000026   0.000001   0.353753  -0.044274  -0.041639  -0.043899
    20  C   -0.000000  -0.000015  -0.064931  -0.001201   0.003785  -0.001975
    21  H    0.000079   0.000000  -0.002632  -0.000476  -0.000032   0.002756
    22  H   -0.000008  -0.000000  -0.002223   0.002766  -0.000053  -0.000456
    23  H    0.000412   0.000114   0.003725  -0.000031  -0.000113  -0.000068
    24  C    0.000026  -0.000009  -0.044415  -0.001270  -0.002632  -0.000422
    25  H   -0.000002   0.000000  -0.006963   0.000187   0.002335   0.000182
    26  C   -0.000737   0.000163   0.003126  -0.000131   0.000148  -0.000068
    27  H   -0.000010  -0.000000  -0.000094   0.000009  -0.000010  -0.000002
    28  H   -0.000475  -0.000140   0.000051   0.000007   0.000007  -0.000005
              19         20         21         22         23         24
     1  C   -0.004325   0.000587   0.000130  -0.000040  -0.000302  -0.061827
     2  H    0.001387   0.000200  -0.000135   0.000022  -0.000131  -0.000504
     3  H    0.000787  -0.000015  -0.000002   0.000000  -0.000016  -0.000900
     4  C    0.000041  -0.000018  -0.000005   0.000001  -0.000011   0.006443
     5  C   -0.000003  -0.000000   0.000000  -0.000000  -0.000000  -0.000149
     6  H    0.000000  -0.000000  -0.000000   0.000000   0.000000   0.000004
     7  H    0.000000   0.000000  -0.000000   0.000000  -0.000000   0.000004
     8  H    0.000000  -0.000000   0.000000  -0.000000   0.000000  -0.000111
     9  C   -0.000001   0.000015   0.000000   0.000000  -0.000045   0.000114
    10  H    0.000000  -0.000000  -0.000000   0.000000   0.000000   0.000002
    11  C    0.000013  -0.000147  -0.000009   0.000003   0.000074  -0.000031
    12  H   -0.000000   0.000004  -0.000000   0.000000  -0.000013   0.000002
    13  H   -0.000026  -0.000000   0.000079  -0.000008   0.000412   0.000026
    14  H    0.000001  -0.000015   0.000000  -0.000000   0.000114  -0.000009
    15  C    0.353753  -0.064931  -0.002632  -0.002223   0.003725  -0.044415
    16  H   -0.044274  -0.001201  -0.000476   0.002766  -0.000031  -0.001270
    17  H   -0.041639   0.003785  -0.000032  -0.000053  -0.000113  -0.002632
    18  H   -0.043899  -0.001975   0.002756  -0.000456  -0.000068  -0.000422
    19  C    4.914192   0.350332  -0.043385  -0.043537  -0.037848   0.697734
    20  C    0.350332   4.907254   0.401208   0.399852   0.407154  -0.044248
    21  H   -0.043385   0.401208   0.587442  -0.035759  -0.028659  -0.000031
    22  H   -0.043537   0.399852  -0.035759   0.584669  -0.026060  -0.000365
    23  H   -0.037848   0.407154  -0.028659  -0.026060   0.568221  -0.003253
    24  C    0.697734  -0.044248  -0.000031  -0.000365  -0.003253   4.962746
    25  H   -0.038449   0.003528  -0.000121  -0.000121   0.000061   0.403391
    26  C   -0.050100  -0.008144   0.000367   0.000117  -0.002069   0.338699
    27  H    0.001583   0.000195  -0.000014   0.000021   0.000058  -0.041395
    28  H    0.000438  -0.002693  -0.000076   0.000113  -0.001675  -0.044060
              25         26         27         28
     1  C    0.000175   0.332330  -0.046841  -0.042369
     2  H    0.000111  -0.041801   0.004515  -0.003118
     3  H    0.001011  -0.046074  -0.001931   0.004477
     4  C   -0.000152  -0.055544  -0.002075  -0.001813
     5  C    0.000010  -0.000661  -0.000289   0.000243
     6  H   -0.000000  -0.000109  -0.000050  -0.000005
     7  H   -0.000001   0.000086   0.000058   0.000006
     8  H    0.000015   0.000609   0.000197  -0.000015
     9  C   -0.000002  -0.004911   0.000760   0.001406
    10  H   -0.000000  -0.000113   0.000001  -0.000046
    11  C    0.000000   0.000577  -0.000033  -0.000082
    12  H    0.000000  -0.000037  -0.000000   0.000037
    13  H   -0.000002  -0.000737  -0.000010  -0.000475
    14  H    0.000000   0.000163  -0.000000  -0.000140
    15  C   -0.006963   0.003126  -0.000094   0.000051
    16  H    0.000187  -0.000131   0.000009   0.000007
    17  H    0.002335   0.000148  -0.000010   0.000007
    18  H    0.000182  -0.000068  -0.000002  -0.000005
    19  C   -0.038449  -0.050100   0.001583   0.000438
    20  C    0.003528  -0.008144   0.000195  -0.002693
    21  H   -0.000121   0.000367  -0.000014  -0.000076
    22  H   -0.000121   0.000117   0.000021   0.000113
    23  H    0.000061  -0.002069   0.000058  -0.001675
    24  C    0.403391   0.338699  -0.041395  -0.044060
    25  H    0.557389  -0.039114  -0.003424   0.003152
    26  C   -0.039114   4.979543   0.413482   0.415850
    27  H   -0.003424   0.413482   0.585267  -0.028362
    28  H    0.003152   0.415850  -0.028362   0.575347
 Mulliken charges:
               1
     1  C   -0.236021
     2  H    0.125346
     3  H    0.115272
     4  C    0.018322
     5  C   -0.341505
     6  H    0.117792
     7  H    0.117845
     8  H    0.114461
     9  C   -0.154256
    10  H    0.115801
    11  C   -0.355567
    12  H    0.120829
    13  H    0.116140
    14  H    0.119588
    15  C   -0.342631
    16  H    0.116356
    17  H    0.119222
    18  H    0.115672
    19  C    0.027221
    20  C   -0.350727
    21  H    0.119352
    22  H    0.121058
    23  H    0.120474
    24  C   -0.163542
    25  H    0.116803
    26  C   -0.235486
    27  H    0.118380
    28  H    0.123802
 Sum of Mulliken charges =  -0.00000
 Mulliken charges with hydrogens summed into heavy atoms:
               1
     1  C    0.004596
     4  C    0.018322
     5  C    0.008593
     9  C   -0.038454
    11  C    0.000991
    15  C    0.008618
    19  C    0.027221
    20  C    0.010156
    24  C   -0.046739
    26  C    0.006696
 Electronic spatial extent (au):  <R**2>=           2384.0095
 Charge=             -0.0000 electrons
 Dipole moment (field-independent basis, Debye):
    X=              0.3027    Y=              0.1253    Z=              0.0460  Tot=              0.3308
 Quadrupole moment (field-independent basis, Debye-Ang):
   XX=            -64.3024   YY=            -63.2901   ZZ=            -67.3956
   XY=              0.7521   XZ=              1.2367   YZ=             -0.3487
 Traceless Quadrupole moment (field-independent basis, Debye-Ang):
   XX=              0.6937   YY=              1.7059   ZZ=             -2.3996
   XY=              0.7521   XZ=              1.2367   YZ=             -0.3487
 Octapole moment (field-independent basis, Debye-Ang**2):
  XXX=              2.6683  YYY=             -2.9989  ZZZ=              0.8999  XYY=             -0.6416
  XXY=              4.0909  XXZ=             -2.0919  XZZ=              1.2120  YZZ=              1.4955
  YYZ=              0.6111  XYZ=             -0.3641
 Hexadecapole moment (field-independent basis, Debye-Ang**3):
 XXXX=          -2435.7217 YYYY=           -693.4918 ZZZZ=           -166.6419 XXXY=              2.3047
 XXXZ=             14.7515 YYYX=            -11.0525 YYYZ=             -1.4216 ZZZX=              2.8118
 ZZZY=             -0.6410 XXYY=           -520.1255 XXZZ=           -449.2348 YYZZ=           -138.3649
 XXYZ=             -4.2785 YYXZ=              0.5786 ZZXY=              5.9188
 N-N= 5.190878335246D+02 E-N=-1.942888406018D+03  KE= 3.887471636294D+02
 No NMR shielding tensors so no spin-rotation constants.
 Leave Link  601 at Fri Sep 17 14:22:29 2021, MaxMem=   524288000 cpu:               0.2 elap:               0.5
 (Enter /opt/gaussian/g16_legacy/l9999.exe)
 1\1\GINC-TRUENO93\FOpt\RMP2-FC\6-31G(d,p)\C10H18\JRAMOS\17-Sep-2021\0\
 \#p opt mp2/6-31g(d,p)\\Conformer number 1378. Energy MM = 23.242 kcal
 /mol\\0,1\C,0.6343300381,0.6008374864,0.8343015006\H,0.4308104542,-0.3
 936089675,1.2345160728\H,0.3122167567,1.3106891671,1.6016614297\C,2.10
 38718305,0.7959868139,0.5577995809\C,2.6095482129,2.2053745932,0.70397
 97631\H,3.6569843522,2.2868313287,0.41629692\H,2.5095391736,2.54865269
 52,1.7359601102\H,2.0330528183,2.8945704779,0.0829006685\C,2.920615752
 3,-0.1946365843,0.1533911434\H,3.958639177,0.0573807506,-0.0454498712\
 C,2.555912006,-1.6325072308,-0.059825569\H,3.1496905345,-2.2858364503,
 0.5823188496\H,1.5051523065,-1.8275898699,0.1422438059\H,2.757059004,-
 1.9320718378,-1.0901201636\C,-3.9381796242,-0.3072853369,0.1221826614\
 H,-4.5717273227,-0.5463434939,-0.7350005231\H,-4.2184190799,0.67886563
 98,0.489239221\H,-4.1672652744,-1.0401303414,0.8991421954\C,-2.4836956
 197,-0.3634221478,-0.2556721021\C,-2.020121663,-1.6958152726,-0.775952
 6762\H,-2.2148968949,-2.4762919254,-0.0372008881\H,-2.5737489545,-1.96
 91707071,-1.6770356688\H,-0.9588059347,-1.713889921,-1.0105284363\C,-1
 .6932446546,0.7188376339,-0.1265713344\H,-2.1418921427,1.6200648852,0.
 2837185275\C,-0.2262652457,0.8051257786,-0.4272547236\H,-0.0016484859,
 1.785402456,-0.8560284493\H,0.0725884802,0.0696803801,-1.1752120442\\V
 ersion=EM64L-G16RevA.03\State=1-A\HF=-389.1567535\MP2=-390.5738646\RMS
 D=5.123e-09\RMSF=3.186e-06\Dipole=-0.0791012,-0.0842255,-0.0128253\PG=
 C01 [X(C10H18)]\\@


 A COMPLEXITY IS MERELY A DISARRANGEMENT OF SIMPLICITIES.

                                    -- G. O. ABELL IN "EXPLORATION OF THE UNIVERSE"
 Job cpu time:       0 days  0 hours 49 minutes 46.6 seconds.
 Elapsed time:       0 days  0 hours 49 minutes 52.0 seconds.
 File lengths (MBytes):  RWF=     32 Int=      0 D2E=      0 Chk=      7 Scr=      1
 Normal termination of Gaussian 16 at Fri Sep 17 14:22:29 2021.
