 Entering Gaussian System, Link 0=/opt/gaussian/g16_legacy/g16
 Input=01-IsoP_556_gaussian.com
 Output=01-IsoP_556_gaussian.log
 Initial command:
 /opt/gaussian/g16_legacy/l1.exe "/scratch-local/jramos/2661427/Gau-15781.inp" -scrdir="/scratch-local/jramos/2661427/"
 Entering Link 1 = /opt/gaussian/g16_legacy/l1.exe PID=     15782.
  
 Copyright (c) 1988,1990,1992,1993,1995,1998,2003,2009,2016,
            Gaussian, Inc.  All Rights Reserved.
  
 This is part of the Gaussian(R) 16 program.  It is based on
 the Gaussian(R) 09 system (copyright 2009, Gaussian, Inc.),
 the Gaussian(R) 03 system (copyright 2003, Gaussian, Inc.),
 the Gaussian(R) 98 system (copyright 1998, Gaussian, Inc.),
 the Gaussian(R) 94 system (copyright 1995, Gaussian, Inc.),
 the Gaussian 92(TM) system (copyright 1992, Gaussian, Inc.),
 the Gaussian 90(TM) system (copyright 1990, Gaussian, Inc.),
 the Gaussian 88(TM) system (copyright 1988, Gaussian, Inc.),
 the Gaussian 86(TM) system (copyright 1986, Carnegie Mellon
 University), and the Gaussian 82(TM) system (copyright 1983,
 Carnegie Mellon University). Gaussian is a federally registered
 trademark of Gaussian, Inc.
  
 This software contains proprietary and confidential information,
 including trade secrets, belonging to Gaussian, Inc.
  
 This software is provided under written license and may be
 used, copied, transmitted, or stored only in accord with that
 written license.
  
 The following legend is applicable only to US Government
 contracts under FAR:
  
                    RESTRICTED RIGHTS LEGEND
  
 Use, reproduction and disclosure by the US Government is
 subject to restrictions as set forth in subparagraphs (a)
 and (c) of the Commercial Computer Software - Restricted
 Rights clause in FAR 52.227-19.
  
 Gaussian, Inc.
 340 Quinnipiac St., Bldg. 40, Wallingford CT 06492
  
  
 ---------------------------------------------------------------
 Warning -- This program may not be used in any manner that
 competes with the business of Gaussian, Inc. or will provide
 assistance to any competitor of Gaussian, Inc.  The licensee
 of this program is prohibited from giving any competitor of
 Gaussian, Inc. access to this program.  By using this program,
 the user acknowledges that Gaussian, Inc. is engaged in the
 business of creating and licensing software in the field of
 computational chemistry and represents and warrants to the
 licensee that it is not a competitor of Gaussian, Inc. and that
 it will not use this program in any manner prohibited above.
 ---------------------------------------------------------------
  

 Cite this work as:
 Gaussian 16, Revision A.03,
 M. J. Frisch, G. W. Trucks, H. B. Schlegel, G. E. Scuseria, 
 M. A. Robb, J. R. Cheeseman, G. Scalmani, V. Barone, 
 G. A. Petersson, H. Nakatsuji, X. Li, M. Caricato, A. V. Marenich, 
 J. Bloino, B. G. Janesko, R. Gomperts, B. Mennucci, H. P. Hratchian, 
 J. V. Ortiz, A. F. Izmaylov, J. L. Sonnenberg, D. Williams-Young, 
 F. Ding, F. Lipparini, F. Egidi, J. Goings, B. Peng, A. Petrone, 
 T. Henderson, D. Ranasinghe, V. G. Zakrzewski, J. Gao, N. Rega, 
 G. Zheng, W. Liang, M. Hada, M. Ehara, K. Toyota, R. Fukuda, 
 J. Hasegawa, M. Ishida, T. Nakajima, Y. Honda, O. Kitao, H. Nakai, 
 T. Vreven, K. Throssell, J. A. Montgomery, Jr., J. E. Peralta, 
 F. Ogliaro, M. J. Bearpark, J. J. Heyd, E. N. Brothers, K. N. Kudin, 
 V. N. Staroverov, T. A. Keith, R. Kobayashi, J. Normand, 
 K. Raghavachari, A. P. Rendell, J. C. Burant, S. S. Iyengar, 
 J. Tomasi, M. Cossi, J. M. Millam, M. Klene, C. Adamo, R. Cammi, 
 J. W. Ochterski, R. L. Martin, K. Morokuma, O. Farkas, 
 J. B. Foresman, and D. J. Fox, Gaussian, Inc., Wallingford CT, 2016.
 
 ******************************************
 Gaussian 16:  EM64L-G16RevA.03 25-Dec-2016
                17-Sep-2021 
 ******************************************
 %chk=01-IsoP_556_gaussian.chk
 %nproc=1
 Will use up to    1 processors via shared memory.
 %mem=4000Mb
 ---------------------
 #p opt mp2/6-31g(d,p)
 ---------------------
 1/18=20,19=15,38=1/1,3;
 2/9=110,12=2,17=6,18=5,40=1/2;
 3/5=1,6=6,7=101,11=9,25=1,30=1,71=1/1,2,3;
 4//1;
 5/5=2,38=5/2;
 8/6=4,10=2/1;
 9/15=2,16=-3/6;
 10/5=1/2;
 6/7=2,8=2,9=2,10=2/1;
 7/12=2/1,2,3,16;
 1/18=20,19=15/3(2);
 2/9=110/2;
 99//99;
 2/9=110/2;
 3/5=1,6=6,7=101,11=9,25=1,30=1,71=1/1,2,3;
 4/5=5,16=3,69=1/1;
 5/5=2,38=5/2;
 8/6=4,10=2/1;
 9/15=2,16=-3/6;
 10/5=1/2;
 7/12=2/1,2,3,16;
 1/18=20,19=15/3(-8);
 2/9=110/2;
 6/7=2,8=2,9=2,10=2/1;
 99//99;
 Leave Link    1 at Fri Sep 17 16:07:09 2021, MaxMem=   524288000 cpu:               0.0 elap:               0.1
 (Enter /opt/gaussian/g16_legacy/l101.exe)
 -------------------------------------------------
 Conformer number 556. Energy MM = 23.287 kcal/mol
 -------------------------------------------------
 Symbolic Z-matrix:
 Charge =  0 Multiplicity = 1
 C                    -0.7586   -0.0392   -0.6618 
 H                    -0.9329    0.8752   -1.2413 
 H                    -0.208    -0.7029   -1.3421 
 C                    -2.0725   -0.6955   -0.2911 
 C                    -2.0101   -2.1913   -0.1147 
 H                    -1.3127   -2.4539    0.6871 
 H                    -1.6725   -2.6689   -1.0403 
 H                    -2.9847   -2.6198    0.1421 
 C                    -3.2393   -0.037    -0.1447 
 H                    -4.1333   -0.6094    0.1013 
 C                    -3.4752    1.4358   -0.2594 
 H                    -2.5557    2.0182   -0.3501 
 H                    -3.9992    1.7915    0.6336 
 H                    -4.1049    1.6446   -1.1295 
 C                     3.815     1.238    -0.2495 
 H                     3.5488    2.2827   -0.442 
 H                     4.5541    1.2273    0.5583 
 H                     4.2839    0.8421   -1.1563 
 C                     2.6195    0.4027    0.1279 
 C                     2.9372   -1.0396    0.4114 
 H                     2.0491   -1.6606    0.5491 
 H                     3.4989   -1.4718   -0.4239 
 H                     3.5492   -1.1194    1.3157 
 C                     1.3889    0.949     0.1803 
 H                     1.2789    2.0056   -0.0649 
 C                     0.0995    0.2754    0.5678 
 H                     0.2822   -0.6314    1.1529 
 H                    -0.4455    0.9527    1.2381 
 
 ITRead=  0  0  0  0  0  0  0  0  0  0  0  0  0  0  0  0  0  0  0  0
 ITRead=  0  0  0  0  0  0  0  0
 MicOpt= -1 -1 -1 -1 -1 -1 -1 -1 -1 -1 -1 -1 -1 -1 -1 -1 -1 -1 -1 -1
 MicOpt= -1 -1 -1 -1 -1 -1 -1 -1
 NAtoms=     28 NQM=       28 NQMF=       0 NMMI=      0 NMMIF=      0
                NMic=       0 NMicF=      0.
                    Isotopes and Nuclear Properties:
 (Nuclear quadrupole moments (NQMom) in fm**2, nuclear magnetic moments (NMagM)
  in nuclear magnetons)

  Atom         1           2           3           4           5           6           7           8           9          10
 IAtWgt=          12           1           1          12          12           1           1           1          12           1
 AtmWgt=  12.0000000   1.0078250   1.0078250  12.0000000  12.0000000   1.0078250   1.0078250   1.0078250  12.0000000   1.0078250
 NucSpn=           0           1           1           0           0           1           1           1           0           1
 AtZEff=  -0.0000000  -0.0000000  -0.0000000  -0.0000000  -0.0000000  -0.0000000  -0.0000000  -0.0000000  -0.0000000  -0.0000000
 NQMom=    0.0000000   0.0000000   0.0000000   0.0000000   0.0000000   0.0000000   0.0000000   0.0000000   0.0000000   0.0000000
 NMagM=    0.0000000   2.7928460   2.7928460   0.0000000   0.0000000   2.7928460   2.7928460   2.7928460   0.0000000   2.7928460
 AtZNuc=   6.0000000   1.0000000   1.0000000   6.0000000   6.0000000   1.0000000   1.0000000   1.0000000   6.0000000   1.0000000

  Atom        11          12          13          14          15          16          17          18          19          20
 IAtWgt=          12           1           1           1          12           1           1           1          12          12
 AtmWgt=  12.0000000   1.0078250   1.0078250   1.0078250  12.0000000   1.0078250   1.0078250   1.0078250  12.0000000  12.0000000
 NucSpn=           0           1           1           1           0           1           1           1           0           0
 AtZEff=  -0.0000000  -0.0000000  -0.0000000  -0.0000000  -0.0000000  -0.0000000  -0.0000000  -0.0000000  -0.0000000  -0.0000000
 NQMom=    0.0000000   0.0000000   0.0000000   0.0000000   0.0000000   0.0000000   0.0000000   0.0000000   0.0000000   0.0000000
 NMagM=    0.0000000   2.7928460   2.7928460   2.7928460   0.0000000   2.7928460   2.7928460   2.7928460   0.0000000   0.0000000
 AtZNuc=   6.0000000   1.0000000   1.0000000   1.0000000   6.0000000   1.0000000   1.0000000   1.0000000   6.0000000   6.0000000

  Atom        21          22          23          24          25          26          27          28
 IAtWgt=           1           1           1          12           1          12           1           1
 AtmWgt=   1.0078250   1.0078250   1.0078250  12.0000000   1.0078250  12.0000000   1.0078250   1.0078250
 NucSpn=           1           1           1           0           1           0           1           1
 AtZEff=  -0.0000000  -0.0000000  -0.0000000  -0.0000000  -0.0000000  -0.0000000  -0.0000000  -0.0000000
 NQMom=    0.0000000   0.0000000   0.0000000   0.0000000   0.0000000   0.0000000   0.0000000   0.0000000
 NMagM=    2.7928460   2.7928460   2.7928460   0.0000000   2.7928460   0.0000000   2.7928460   2.7928460
 AtZNuc=   1.0000000   1.0000000   1.0000000   6.0000000   1.0000000   6.0000000   1.0000000   1.0000000
 Leave Link  101 at Fri Sep 17 16:07:09 2021, MaxMem=   524288000 cpu:               0.3 elap:               0.3
 (Enter /opt/gaussian/g16_legacy/l103.exe)

 GradGradGradGradGradGradGradGradGradGradGradGradGradGradGradGradGradGrad
 Berny optimization.
 Initialization pass.
                           ----------------------------
                           !    Initial Parameters    !
                           ! (Angstroms and Degrees)  !
 --------------------------                            --------------------------
 ! Name  Definition              Value          Derivative Info.                !
 --------------------------------------------------------------------------------
 ! R1    R(1,2)                  1.0965         estimate D2E/DX2                !
 ! R2    R(1,3)                  1.0984         estimate D2E/DX2                !
 ! R3    R(1,4)                  1.5148         estimate D2E/DX2                !
 ! R4    R(1,26)                 1.5321         estimate D2E/DX2                !
 ! R5    R(4,5)                  1.5075         estimate D2E/DX2                !
 ! R6    R(4,9)                  1.3478         estimate D2E/DX2                !
 ! R7    R(5,6)                  1.0946         estimate D2E/DX2                !
 ! R8    R(5,7)                  1.0949         estimate D2E/DX2                !
 ! R9    R(5,8)                  1.0952         estimate D2E/DX2                !
 ! R10   R(9,10)                 1.0897         estimate D2E/DX2                !
 ! R11   R(9,11)                 1.496          estimate D2E/DX2                !
 ! R12   R(11,12)                1.0922         estimate D2E/DX2                !
 ! R13   R(11,13)                1.0948         estimate D2E/DX2                !
 ! R14   R(11,14)                1.0942         estimate D2E/DX2                !
 ! R15   R(15,16)                1.0951         estimate D2E/DX2                !
 ! R16   R(15,17)                1.095          estimate D2E/DX2                !
 ! R17   R(15,18)                1.0949         estimate D2E/DX2                !
 ! R18   R(15,19)                1.5064         estimate D2E/DX2                !
 ! R19   R(19,20)                1.5038         estimate D2E/DX2                !
 ! R20   R(19,24)                1.3474         estimate D2E/DX2                !
 ! R21   R(20,21)                1.0924         estimate D2E/DX2                !
 ! R22   R(20,22)                1.0955         estimate D2E/DX2                !
 ! R23   R(20,23)                1.0948         estimate D2E/DX2                !
 ! R24   R(24,25)                1.0902         estimate D2E/DX2                !
 ! R25   R(24,26)                1.5055         estimate D2E/DX2                !
 ! R26   R(26,27)                1.0945         estimate D2E/DX2                !
 ! R27   R(26,28)                1.0978         estimate D2E/DX2                !
 ! A1    A(2,1,3)              104.8475         estimate D2E/DX2                !
 ! A2    A(2,1,4)              110.6568         estimate D2E/DX2                !
 ! A3    A(2,1,26)             109.9958         estimate D2E/DX2                !
 ! A4    A(3,1,4)              108.9401         estimate D2E/DX2                !
 ! A5    A(3,1,26)             109.9012         estimate D2E/DX2                !
 ! A6    A(4,1,26)             112.2336         estimate D2E/DX2                !
 ! A7    A(1,4,5)              115.0022         estimate D2E/DX2                !
 ! A8    A(1,4,9)              124.4597         estimate D2E/DX2                !
 ! A9    A(5,4,9)              120.5262         estimate D2E/DX2                !
 ! A10   A(4,5,6)              110.4953         estimate D2E/DX2                !
 ! A11   A(4,5,7)              110.2837         estimate D2E/DX2                !
 ! A12   A(4,5,8)              112.2618         estimate D2E/DX2                !
 ! A13   A(6,5,7)              108.5501         estimate D2E/DX2                !
 ! A14   A(6,5,8)              107.5387         estimate D2E/DX2                !
 ! A15   A(7,5,8)              107.5746         estimate D2E/DX2                !
 ! A16   A(4,9,10)             118.5639         estimate D2E/DX2                !
 ! A17   A(4,9,11)             127.532          estimate D2E/DX2                !
 ! A18   A(10,9,11)            113.8969         estimate D2E/DX2                !
 ! A19   A(9,11,12)            113.4899         estimate D2E/DX2                !
 ! A20   A(9,11,13)            109.4392         estimate D2E/DX2                !
 ! A21   A(9,11,14)            109.8523         estimate D2E/DX2                !
 ! A22   A(12,11,13)           107.3039         estimate D2E/DX2                !
 ! A23   A(12,11,14)           108.4643         estimate D2E/DX2                !
 ! A24   A(13,11,14)           108.131          estimate D2E/DX2                !
 ! A25   A(16,15,17)           107.6426         estimate D2E/DX2                !
 ! A26   A(16,15,18)           107.6645         estimate D2E/DX2                !
 ! A27   A(16,15,19)           112.3388         estimate D2E/DX2                !
 ! A28   A(17,15,18)           108.5652         estimate D2E/DX2                !
 ! A29   A(17,15,19)           110.2084         estimate D2E/DX2                !
 ! A30   A(18,15,19)           110.2942         estimate D2E/DX2                !
 ! A31   A(15,19,20)           114.2908         estimate D2E/DX2                !
 ! A32   A(15,19,24)           120.6448         estimate D2E/DX2                !
 ! A33   A(20,19,24)           125.0617         estimate D2E/DX2                !
 ! A34   A(19,20,21)           113.4049         estimate D2E/DX2                !
 ! A35   A(19,20,22)           110.0579         estimate D2E/DX2                !
 ! A36   A(19,20,23)           110.1028         estimate D2E/DX2                !
 ! A37   A(21,20,22)           106.7797         estimate D2E/DX2                !
 ! A38   A(21,20,23)           107.9928         estimate D2E/DX2                !
 ! A39   A(22,20,23)           108.3264         estimate D2E/DX2                !
 ! A40   A(19,24,25)           118.4459         estimate D2E/DX2                !
 ! A41   A(19,24,26)           127.6486         estimate D2E/DX2                !
 ! A42   A(25,24,26)           113.8976         estimate D2E/DX2                !
 ! A43   A(1,26,24)            111.4079         estimate D2E/DX2                !
 ! A44   A(1,26,27)            110.634          estimate D2E/DX2                !
 ! A45   A(1,26,28)            109.7969         estimate D2E/DX2                !
 ! A46   A(24,26,27)           111.4273         estimate D2E/DX2                !
 ! A47   A(24,26,28)           107.8376         estimate D2E/DX2                !
 ! A48   A(27,26,28)           105.5228         estimate D2E/DX2                !
 ! D1    D(2,1,4,5)            151.7183         estimate D2E/DX2                !
 ! D2    D(2,1,4,9)            -27.0278         estimate D2E/DX2                !
 ! D3    D(3,1,4,5)             36.953          estimate D2E/DX2                !
 ! D4    D(3,1,4,9)           -141.7931         estimate D2E/DX2                !
 ! D5    D(26,1,4,5)           -84.9894         estimate D2E/DX2                !
 ! D6    D(26,1,4,9)            96.2645         estimate D2E/DX2                !
 ! D7    D(2,1,26,24)          -55.3181         estimate D2E/DX2                !
 ! D8    D(2,1,26,27)         -179.8539         estimate D2E/DX2                !
 ! D9    D(2,1,26,28)           64.0759         estimate D2E/DX2                !
 ! D10   D(3,1,26,24)           59.6263         estimate D2E/DX2                !
 ! D11   D(3,1,26,27)          -64.9095         estimate D2E/DX2                !
 ! D12   D(3,1,26,28)          179.0202         estimate D2E/DX2                !
 ! D13   D(4,1,26,24)         -178.9806         estimate D2E/DX2                !
 ! D14   D(4,1,26,27)           56.4836         estimate D2E/DX2                !
 ! D15   D(4,1,26,28)          -59.5867         estimate D2E/DX2                !
 ! D16   D(1,4,5,6)             60.5477         estimate D2E/DX2                !
 ! D17   D(1,4,5,7)            -59.4679         estimate D2E/DX2                !
 ! D18   D(1,4,5,8)           -179.4102         estimate D2E/DX2                !
 ! D19   D(9,4,5,6)           -120.6526         estimate D2E/DX2                !
 ! D20   D(9,4,5,7)            119.3319         estimate D2E/DX2                !
 ! D21   D(9,4,5,8)             -0.6105         estimate D2E/DX2                !
 ! D22   D(1,4,9,10)           178.5635         estimate D2E/DX2                !
 ! D23   D(1,4,9,11)            -2.48           estimate D2E/DX2                !
 ! D24   D(5,4,9,10)            -0.1172         estimate D2E/DX2                !
 ! D25   D(5,4,9,11)           178.8393         estimate D2E/DX2                !
 ! D26   D(4,9,11,12)           -8.0395         estimate D2E/DX2                !
 ! D27   D(4,9,11,13)         -127.8612         estimate D2E/DX2                !
 ! D28   D(4,9,11,14)          113.5658         estimate D2E/DX2                !
 ! D29   D(10,9,11,12)         170.958          estimate D2E/DX2                !
 ! D30   D(10,9,11,13)          51.1364         estimate D2E/DX2                !
 ! D31   D(10,9,11,14)         -67.4366         estimate D2E/DX2                !
 ! D32   D(16,15,19,20)       -179.6037         estimate D2E/DX2                !
 ! D33   D(16,15,19,24)          0.9592         estimate D2E/DX2                !
 ! D34   D(17,15,19,20)        -59.5758         estimate D2E/DX2                !
 ! D35   D(17,15,19,24)        120.9871         estimate D2E/DX2                !
 ! D36   D(18,15,19,20)         60.2816         estimate D2E/DX2                !
 ! D37   D(18,15,19,24)       -119.1555         estimate D2E/DX2                !
 ! D38   D(15,19,20,21)       -172.1128         estimate D2E/DX2                !
 ! D39   D(15,19,20,22)        -52.5799         estimate D2E/DX2                !
 ! D40   D(15,19,20,23)         66.7661         estimate D2E/DX2                !
 ! D41   D(24,19,20,21)          7.2955         estimate D2E/DX2                !
 ! D42   D(24,19,20,22)        126.8285         estimate D2E/DX2                !
 ! D43   D(24,19,20,23)       -113.8256         estimate D2E/DX2                !
 ! D44   D(15,19,24,25)          0.5187         estimate D2E/DX2                !
 ! D45   D(15,19,24,26)       -178.3902         estimate D2E/DX2                !
 ! D46   D(20,19,24,25)       -178.8545         estimate D2E/DX2                !
 ! D47   D(20,19,24,26)          2.2366         estimate D2E/DX2                !
 ! D48   D(19,24,26,1)        -103.6624         estimate D2E/DX2                !
 ! D49   D(19,24,26,27)         20.4265         estimate D2E/DX2                !
 ! D50   D(19,24,26,28)        135.7859         estimate D2E/DX2                !
 ! D51   D(25,24,26,1)          77.3869         estimate D2E/DX2                !
 ! D52   D(25,24,26,27)       -158.5242         estimate D2E/DX2                !
 ! D53   D(25,24,26,28)        -43.1648         estimate D2E/DX2                !
 --------------------------------------------------------------------------------
 Trust Radius=3.00D-01 FncErr=1.00D-07 GrdErr=1.00D-07 EigMax=2.50D+02 EigMin=1.00D-04
 Number of steps in this run=    138 maximum allowed number of steps=    168.
 GradGradGradGradGradGradGradGradGradGradGradGradGradGradGradGradGradGrad

 Leave Link  103 at Fri Sep 17 16:07:09 2021, MaxMem=   524288000 cpu:               0.1 elap:               0.1
 (Enter /opt/gaussian/g16_legacy/l202.exe)
                          Input orientation:                          
 ---------------------------------------------------------------------
 Center     Atomic      Atomic             Coordinates (Angstroms)
 Number     Number       Type             X           Y           Z
 ---------------------------------------------------------------------
      1          6           0       -0.758600   -0.039200   -0.661800
      2          1           0       -0.932900    0.875200   -1.241300
      3          1           0       -0.208000   -0.702900   -1.342100
      4          6           0       -2.072500   -0.695500   -0.291100
      5          6           0       -2.010100   -2.191300   -0.114700
      6          1           0       -1.312700   -2.453900    0.687100
      7          1           0       -1.672500   -2.668900   -1.040300
      8          1           0       -2.984700   -2.619800    0.142100
      9          6           0       -3.239300   -0.037000   -0.144700
     10          1           0       -4.133300   -0.609400    0.101300
     11          6           0       -3.475200    1.435800   -0.259400
     12          1           0       -2.555700    2.018200   -0.350100
     13          1           0       -3.999200    1.791500    0.633600
     14          1           0       -4.104900    1.644600   -1.129500
     15          6           0        3.815000    1.238000   -0.249500
     16          1           0        3.548800    2.282700   -0.442000
     17          1           0        4.554100    1.227300    0.558300
     18          1           0        4.283900    0.842100   -1.156300
     19          6           0        2.619500    0.402700    0.127900
     20          6           0        2.937200   -1.039600    0.411400
     21          1           0        2.049100   -1.660600    0.549100
     22          1           0        3.498900   -1.471800   -0.423900
     23          1           0        3.549200   -1.119400    1.315700
     24          6           0        1.388900    0.949000    0.180300
     25          1           0        1.278900    2.005600   -0.064900
     26          6           0        0.099500    0.275400    0.567800
     27          1           0        0.282200   -0.631400    1.152900
     28          1           0       -0.445500    0.952700    1.238100
 ---------------------------------------------------------------------
                    Distance matrix (angstroms):
                    1          2          3          4          5
     1  C    0.000000
     2  H    1.096507   0.000000
     3  H    1.098393   1.739552   0.000000
     4  C    1.514755   2.160710   2.140331   0.000000
     5  C    2.548942   3.439914   2.639964   1.507458   0.000000
     6  H    2.820875   3.865990   2.898968   2.150847   1.094627
     7  H    2.809590   3.626025   2.470020   2.148397   1.094902
     8  H    3.501610   4.282371   3.686112   2.173178   1.095173
     9  C    2.534022   2.711848   3.326555   1.347768   2.480492
    10  H    3.506572   3.774808   4.183315   2.099592   2.656509
    11  C    3.117285   2.782389   4.052268   2.551668   3.914500
    12  H    2.749476   2.175814   3.728290   2.757015   4.251233
    13  H    3.940940   3.709050   4.949608   3.279087   4.514329
    14  H    3.775136   3.265893   4.554315   3.210862   4.486885
    15  C    4.766450   4.863933   4.598412   6.197000   6.760922
    16  H    4.898288   4.765036   4.882370   6.363290   7.143190
    17  H    5.596199   5.785301   5.478575   6.952012   7.431586
    18  H    5.142764   5.217597   4.753810   6.596712   7.064056
    19  C    3.497208   3.836341   3.373130   4.836990   5.312333
    20  C    3.976367   4.623370   3.616685   5.070405   5.106757
    21  H    3.460982   4.304432   3.096502   4.315662   4.147213
    22  H    4.498360   5.081083   3.895562   5.626791   5.564384
    23  H    4.861531   5.532260   4.621031   5.862168   5.839592
    24  C    2.509468   2.723444   2.756187   3.861073   4.636994
    25  H    2.947695   2.748414   3.343364   4.310335   5.332351
    26  C    1.532066   2.167591   2.167797   2.529415   3.316750
    27  H    2.174190   3.078718   2.543705   2.762944   3.048727
    28  H    2.165991   2.528041   3.074874   2.775274   3.763347
                    6          7          8          9         10
     6  H    0.000000
     7  H    1.777524   0.000000
     8  H    1.766389   1.767017   0.000000
     9  C    3.200794   3.191216   2.611117   0.000000
    10  H    3.420691   3.405925   2.315741   1.089676   0.000000
    11  C    4.549949   4.550615   4.104837   1.495976   2.178542
    12  H    4.756103   4.819266   4.683732   2.175625   3.097881
    13  H    5.024298   5.301947   4.553059   2.127583   2.462853
    14  H    5.281488   4.952859   4.588782   2.132340   2.568305
    15  C    6.387539   6.782469   7.827636   7.169362   8.167706
    16  H    6.880729   7.220684   8.189158   7.179672   8.226426
    17  H    6.927277   7.517077   8.473896   7.926522   8.891189
    18  H    6.751568   6.915148   8.154946   7.641642   8.633520
    19  C    4.892348   5.405616   6.367320   5.881597   6.828277
    20  C    4.487528   5.100136   6.135019   6.282007   7.090360
    21  H    3.456887   4.170512   5.140511   5.575357   6.287099
    22  H    5.034912   5.343817   6.608731   6.894922   7.698704
    23  H    5.080758   5.934462   6.805908   7.027666   7.794593
    24  C    4.374382   4.894000   5.645013   4.743212   5.738427
    25  H    5.212392   5.613655   6.294081   4.959104   6.013132
    26  C    3.075324   3.794057   4.251552   3.428241   4.349378
    27  H    2.466208   3.575246   3.955766   3.799742   4.539051
    28  H    3.558168   4.451137   4.517910   3.270621   4.163213
                   11         12         13         14         15
    11  C    0.000000
    12  H    1.092198   0.000000
    13  H    1.094782   1.761463   0.000000
    14  H    1.094163   1.773996   1.772364   0.000000
    15  C    7.292890   6.419085   7.883397   7.979006   0.000000
    16  H    7.077228   6.110919   7.640059   7.710963   1.095133
    17  H    8.073522   7.211100   8.572219   8.831823   1.094954
    18  H    7.833297   6.986651   8.527300   8.427140   1.094938
    19  C    6.193760   5.442520   6.781717   6.952764   1.506445
    20  C    6.906262   6.332612   7.495208   7.692235   2.528791
    21  H    6.384298   5.962073   6.964630   7.184272   3.486839
    22  H    7.557729   6.988829   8.245540   8.247884   2.733743
    23  H    7.638860   7.063231   8.118925   8.497291   2.842153
    24  C    4.908134   4.121211   5.472377   5.690455   2.480768
    25  H    4.792074   3.845212   5.328422   5.499909   2.656142
    26  C    3.848281   3.306052   4.370610   4.736298   3.924222
    27  H    4.515082   4.163300   4.946767   5.443911   4.235807
    28  H    3.413938   2.847914   3.701052   4.413101   4.521749
                   16         17         18         19         20
    16  H    0.000000
    17  H    1.767794   0.000000
    18  H    1.768029   1.777988   0.000000
    19  C    2.173197   2.146599   2.147666   0.000000
    20  C    3.484254   2.788329   2.795010   1.503840   0.000000
    21  H    4.333704   3.822967   3.763805   2.181736   1.092394
    22  H    3.754875   3.059952   2.550837   2.142797   1.095459
    23  H    3.829333   2.662795   3.240069   2.142895   1.094838
    24  C    2.613653   3.199817   3.190447   1.347429   2.530844
    25  H    2.317636   3.423604   3.402192   2.098492   3.500009
    26  C    4.116627   4.555180   4.561017   2.561273   3.131490
    27  H    4.659009   4.696535   4.849455   2.753717   2.786660
    28  H    4.532777   5.053072   5.302132   3.305945   4.011901
                   21         22         23         24         25
    21  H    0.000000
    22  H    1.756216   0.000000
    23  H    1.769427   1.775647   0.000000
    24  C    2.716963   3.267634   3.199110   0.000000
    25  H    3.796212   4.141207   4.101944   1.090242   0.000000
    26  C    2.747615   3.948683   3.795425   1.505472   2.187438
    27  H    2.132079   3.679637   3.307255   2.160648   3.070866
    28  H    3.677919   4.919221   4.500805   2.117541   2.404155
                   26         27         28
    26  C    0.000000
    27  H    1.094535   0.000000
    28  H    1.097753   1.745331   0.000000
 Stoichiometry    C10H18
 Framework group  C1[X(C10H18)]
 Deg. of freedom    78
 Full point group                 C1      NOp   1
 Largest Abelian subgroup         C1      NOp   1
 Largest concise Abelian subgroup C1      NOp   1
                         Standard orientation:                         
 ---------------------------------------------------------------------
 Center     Atomic      Atomic             Coordinates (Angstroms)
 Number     Number       Type             X           Y           Z
 ---------------------------------------------------------------------
      1          6           0       -0.745843   -0.045524    0.580350
      2          1           0       -0.871504   -1.012055    1.082700
      3          1           0       -0.286543    0.606568    1.335522
      4          6           0       -2.090122    0.530301    0.185608
      5          6           0       -2.144091    2.035364    0.120011
      6          1           0       -1.432527    2.412438   -0.621406
      7          1           0       -1.893307    2.467001    1.094489
      8          1           0       -3.137253    2.403150   -0.158854
      9          6           0       -3.189356   -0.205981   -0.071392
     10          1           0       -4.114825    0.310432   -0.324804
     11          6           0       -3.306963   -1.697323   -0.075158
     12          1           0       -2.347661   -2.209913    0.024276
     13          1           0       -3.755038   -2.025088   -1.018740
     14          1           0       -3.958982   -2.020697    0.741845
     15          6           0        3.933030   -0.920030    0.330485
     16          1           0        3.745750   -1.994145    0.433059
     17          1           0        4.707398   -0.789564   -0.432572
     18          1           0        4.322234   -0.557734    1.287644
     19          6           0        2.691999   -0.156360   -0.051648
     20          6           0        2.901846    1.323927   -0.213666
     21          1           0        1.972884    1.880933   -0.355428
     22          1           0        3.383895    1.735088    0.679981
     23          1           0        3.548683    1.520256   -1.074903
     24          6           0        1.515296   -0.793298   -0.210543
     25          1           0        1.481891   -1.870797   -0.047732
     26          6           0        0.194784   -0.197058   -0.619434
     27          1           0        0.329715    0.763010   -1.127441
     28          1           0       -0.258299   -0.862979   -1.365308
 ---------------------------------------------------------------------
 Rotational constants (GHZ):           2.4778878           0.5324366           0.4581654
 Leave Link  202 at Fri Sep 17 16:07:10 2021, MaxMem=   524288000 cpu:               0.0 elap:               0.1
 (Enter /opt/gaussian/g16_legacy/l301.exe)
 Standard basis: 6-31G(d,p) (6D, 7F)
 Ernie: Thresh=  0.10000D-02 Tol=  0.10000D-05 Strict=F.
 There are   240 symmetry adapted cartesian basis functions of A   symmetry.
 There are   240 symmetry adapted basis functions of A   symmetry.
   240 basis functions,   406 primitive gaussians,   240 cartesian basis functions
    39 alpha electrons       39 beta electrons
       nuclear repulsion energy       513.2785677532 Hartrees.
 IExCor=    0 DFT=F Ex=HF Corr=None ExCW=0 ScaHFX=  1.000000
 ScaDFX=  1.000000  1.000000  1.000000  1.000000 ScalE2=  1.000000  1.000000
 IRadAn=      5 IRanWt=     -1 IRanGd=            0 ICorTp=0 IEmpDi=  4
 NAtoms=   28 NActive=   28 NUniq=   28 SFac= 1.00D+00 NAtFMM=   60 NAOKFM=F Big=F
 Integral buffers will be    131072 words long.
 Raffenetti 1 integral format.
 Two-electron integral symmetry is turned on.
 Leave Link  301 at Fri Sep 17 16:07:10 2021, MaxMem=   524288000 cpu:               0.1 elap:               0.2
 (Enter /opt/gaussian/g16_legacy/l302.exe)
 NPDir=0 NMtPBC=     1 NCelOv=     1 NCel=       1 NClECP=     1 NCelD=      1
         NCelK=      1 NCelE2=     1 NClLst=     1 CellRange=     0.0.
 One-electron integrals computed using PRISM.
 One-electron integral symmetry used in STVInt
 NBasis=   240 RedAO= T EigKep=  2.09D-03  NBF=   240
 NBsUse=   240 1.00D-06 EigRej= -1.00D+00 NBFU=   240
 Leave Link  302 at Fri Sep 17 16:07:11 2021, MaxMem=   524288000 cpu:               0.3 elap:               0.6
 (Enter /opt/gaussian/g16_legacy/l303.exe)
 DipDrv:  MaxL=1.
 Leave Link  303 at Fri Sep 17 16:07:11 2021, MaxMem=   524288000 cpu:               0.1 elap:               0.1
 (Enter /opt/gaussian/g16_legacy/l401.exe)
 ExpMin= 1.61D-01 ExpMax= 3.05D+03 ExpMxC= 4.57D+02 IAcc=3 IRadAn=         5 AccDes= 0.00D+00
 Harris functional with IExCor=  205 and IRadAn=       5 diagonalized for initial guess.
 HarFok:  IExCor=  205 AccDes= 0.00D+00 IRadAn=         5 IDoV= 1 UseB2=F ITyADJ=14
 ICtDFT=  3500011 ScaDFX=  1.000000  1.000000  1.000000  1.000000
 FoFCou: FMM=F IPFlag=           0 FMFlag=      100000 FMFlg1=           0
         NFxFlg=           0 DoJE=T BraDBF=F KetDBF=T FulRan=T
         wScrn=  0.000000 ICntrl=       500 IOpCl=  0 I1Cent=   200000004 NGrid=           0
         NMat0=    1 NMatS0=      1 NMatT0=    0 NMatD0=    1 NMtDS0=    0 NMtDT0=    0
 Petite list used in FoFCou.
 Harris En= -390.110057593399    
 JPrj=0 DoOrth=F DoCkMO=F.
 Leave Link  401 at Fri Sep 17 16:07:23 2021, MaxMem=   524288000 cpu:              11.4 elap:              11.6
 (Enter /opt/gaussian/g16_legacy/l502.exe)
 Keep R1 ints in memory in canonical form, NReq=425198025.
 FoFCou: FMM=F IPFlag=           0 FMFlag=           0 FMFlg1=           0
         NFxFlg=           0 DoJE=F BraDBF=F KetDBF=F FulRan=T
         wScrn=  0.000000 ICntrl=       600 IOpCl=  0 I1Cent=           0 NGrid=           0
         NMat0=    1 NMatS0=  28920 NMatT0=    0 NMatD0=    1 NMtDS0=    0 NMtDT0=    0
 Symmetry not used in FoFCou.
 Two-electron integral symmetry not used.
 Closed shell SCF:
 Using DIIS extrapolation, IDIIS=  1040.
 NGot=   524288000 LenX=   105970886 LenY=   105912845
 Requested convergence on RMS density matrix=1.00D-08 within 128 cycles.
 Requested convergence on MAX density matrix=1.00D-06.
 Requested convergence on             energy=1.00D-06.
 No special actions if energy rises.

 Cycle   1  Pass 1  IDiag  1:
 E= -388.532775153031    
 DIIS: error= 5.02D-02 at cycle   1 NSaved=   1.
 NSaved= 1 IEnMin= 1 EnMin= -388.532775153031     IErMin= 1 ErrMin= 5.02D-02
 ErrMax= 5.02D-02  0.00D+00 EMaxC= 1.00D-01 BMatC= 8.07D-01 BMatP= 8.07D-01
 IDIUse=3 WtCom= 4.98D-01 WtEn= 5.02D-01
 Coeff-Com:  0.100D+01
 Coeff-En:   0.100D+01
 Coeff:      0.100D+01
 Gap=     0.508 Goal=   None    Shift=    0.000
 GapD=    0.508 DampG=2.000 DampE=0.500 DampFc=1.0000 IDamp=-1.
 RMSDP=3.99D-03 MaxDP=1.15D-01              OVMax= 1.39D-01

 Cycle   2  Pass 1  IDiag  1:
 E= -389.074229022001     Delta-E=       -0.541453868970 Rises=F Damp=F
 DIIS: error= 1.46D-02 at cycle   2 NSaved=   2.
 NSaved= 2 IEnMin= 2 EnMin= -389.074229022001     IErMin= 2 ErrMin= 1.46D-02
 ErrMax= 1.46D-02  0.00D+00 EMaxC= 1.00D-01 BMatC= 8.64D-02 BMatP= 8.07D-01
 IDIUse=3 WtCom= 8.54D-01 WtEn= 1.46D-01
 Coeff-Com:  0.183D+00 0.817D+00
 Coeff-En:   0.000D+00 0.100D+01
 Coeff:      0.156D+00 0.844D+00
 Gap=     0.552 Goal=   None    Shift=    0.000
 RMSDP=1.62D-03 MaxDP=3.04D-02 DE=-5.41D-01 OVMax= 4.55D-02

 Cycle   3  Pass 1  IDiag  1:
 E= -389.151650531945     Delta-E=       -0.077421509945 Rises=F Damp=F
 DIIS: error= 2.67D-03 at cycle   3 NSaved=   3.
 NSaved= 3 IEnMin= 3 EnMin= -389.151650531945     IErMin= 3 ErrMin= 2.67D-03
 ErrMax= 2.67D-03  0.00D+00 EMaxC= 1.00D-01 BMatC= 3.02D-03 BMatP= 8.64D-02
 IDIUse=3 WtCom= 9.73D-01 WtEn= 2.67D-02
 Coeff-Com: -0.245D-01 0.102D+00 0.922D+00
 Coeff-En:   0.000D+00 0.000D+00 0.100D+01
 Coeff:     -0.239D-01 0.997D-01 0.924D+00
 Gap=     0.499 Goal=   None    Shift=    0.000
 RMSDP=2.54D-04 MaxDP=6.75D-03 DE=-7.74D-02 OVMax= 9.70D-03

 Cycle   4  Pass 1  IDiag  1:
 E= -389.155144698226     Delta-E=       -0.003494166281 Rises=F Damp=F
 DIIS: error= 4.95D-04 at cycle   4 NSaved=   4.
 NSaved= 4 IEnMin= 4 EnMin= -389.155144698226     IErMin= 4 ErrMin= 4.95D-04
 ErrMax= 4.95D-04  0.00D+00 EMaxC= 1.00D-01 BMatC= 9.59D-05 BMatP= 3.02D-03
 IDIUse=3 WtCom= 9.95D-01 WtEn= 4.95D-03
 Coeff-Com: -0.443D-02-0.832D-03 0.102D+00 0.903D+00
 Coeff-En:   0.000D+00 0.000D+00 0.000D+00 0.100D+01
 Coeff:     -0.440D-02-0.828D-03 0.102D+00 0.903D+00
 Gap=     0.500 Goal=   None    Shift=    0.000
 RMSDP=7.33D-05 MaxDP=1.75D-03 DE=-3.49D-03 OVMax= 3.51D-03

 Cycle   5  Pass 1  IDiag  1:
 E= -389.155269953756     Delta-E=       -0.000125255530 Rises=F Damp=F
 DIIS: error= 1.73D-04 at cycle   5 NSaved=   5.
 NSaved= 5 IEnMin= 5 EnMin= -389.155269953756     IErMin= 5 ErrMin= 1.73D-04
 ErrMax= 1.73D-04  0.00D+00 EMaxC= 1.00D-01 BMatC= 1.79D-05 BMatP= 9.59D-05
 IDIUse=3 WtCom= 9.98D-01 WtEn= 1.73D-03
 Coeff-Com:  0.248D-02-0.154D-01-0.106D+00 0.196D+00 0.922D+00
 Coeff-En:   0.000D+00 0.000D+00 0.000D+00 0.000D+00 0.100D+01
 Coeff:      0.247D-02-0.153D-01-0.105D+00 0.196D+00 0.923D+00
 Gap=     0.500 Goal=   None    Shift=    0.000
 RMSDP=3.09D-05 MaxDP=7.46D-04 DE=-1.25D-04 OVMax= 1.02D-03

 Cycle   6  Pass 1  IDiag  1:
 E= -389.155293578847     Delta-E=       -0.000023625091 Rises=F Damp=F
 DIIS: error= 3.74D-05 at cycle   6 NSaved=   6.
 NSaved= 6 IEnMin= 6 EnMin= -389.155293578847     IErMin= 6 ErrMin= 3.74D-05
 ErrMax= 3.74D-05  0.00D+00 EMaxC= 1.00D-01 BMatC= 5.50D-07 BMatP= 1.79D-05
 IDIUse=1 WtCom= 1.00D+00 WtEn= 0.00D+00
 Coeff-Com:  0.724D-03-0.330D-02-0.263D-01-0.272D-02 0.163D+00 0.868D+00
 Coeff:      0.724D-03-0.330D-02-0.263D-01-0.272D-02 0.163D+00 0.868D+00
 Gap=     0.500 Goal=   None    Shift=    0.000
 RMSDP=5.42D-06 MaxDP=1.67D-04 DE=-2.36D-05 OVMax= 3.13D-04

 Cycle   7  Pass 1  IDiag  1:
 E= -389.155294432530     Delta-E=       -0.000000853683 Rises=F Damp=F
 DIIS: error= 9.13D-06 at cycle   7 NSaved=   7.
 NSaved= 7 IEnMin= 7 EnMin= -389.155294432530     IErMin= 7 ErrMin= 9.13D-06
 ErrMax= 9.13D-06  0.00D+00 EMaxC= 1.00D-01 BMatC= 4.92D-08 BMatP= 5.50D-07
 IDIUse=1 WtCom= 1.00D+00 WtEn= 0.00D+00
 Coeff-Com: -0.555D-04 0.479D-03 0.326D-02-0.106D-01-0.462D-01 0.126D+00
 Coeff-Com:  0.927D+00
 Coeff:     -0.555D-04 0.479D-03 0.326D-02-0.106D-01-0.462D-01 0.126D+00
 Coeff:      0.927D+00
 Gap=     0.500 Goal=   None    Shift=    0.000
 RMSDP=1.70D-06 MaxDP=4.71D-05 DE=-8.54D-07 OVMax= 8.68D-05

 Cycle   8  Pass 1  IDiag  1:
 E= -389.155294517719     Delta-E=       -0.000000085189 Rises=F Damp=F
 DIIS: error= 2.98D-06 at cycle   8 NSaved=   8.
 NSaved= 8 IEnMin= 8 EnMin= -389.155294517719     IErMin= 8 ErrMin= 2.98D-06
 ErrMax= 2.98D-06  0.00D+00 EMaxC= 1.00D-01 BMatC= 4.91D-09 BMatP= 4.92D-08
 IDIUse=1 WtCom= 1.00D+00 WtEn= 0.00D+00
 Coeff-Com: -0.553D-04 0.226D-03 0.195D-02 0.331D-02-0.143D-01-0.848D-01
 Coeff-Com: -0.129D+00 0.122D+01
 Coeff:     -0.553D-04 0.226D-03 0.195D-02 0.331D-02-0.143D-01-0.848D-01
 Coeff:     -0.129D+00 0.122D+01
 Gap=     0.500 Goal=   None    Shift=    0.000
 RMSDP=7.77D-07 MaxDP=2.58D-05 DE=-8.52D-08 OVMax= 5.60D-05

 Cycle   9  Pass 1  IDiag  1:
 E= -389.155294533035     Delta-E=       -0.000000015315 Rises=F Damp=F
 DIIS: error= 1.35D-06 at cycle   9 NSaved=   9.
 NSaved= 9 IEnMin= 9 EnMin= -389.155294533035     IErMin= 9 ErrMin= 1.35D-06
 ErrMax= 1.35D-06  0.00D+00 EMaxC= 1.00D-01 BMatC= 6.53D-10 BMatP= 4.91D-09
 IDIUse=1 WtCom= 1.00D+00 WtEn= 0.00D+00
 Coeff-Com:  0.122D-04-0.778D-04-0.581D-03 0.123D-02 0.420D-02 0.525D-02
 Coeff-Com: -0.723D-01-0.197D+00 0.126D+01
 Coeff:      0.122D-04-0.778D-04-0.581D-03 0.123D-02 0.420D-02 0.525D-02
 Coeff:     -0.723D-01-0.197D+00 0.126D+01
 Gap=     0.500 Goal=   None    Shift=    0.000
 RMSDP=2.99D-07 MaxDP=1.28D-05 DE=-1.53D-08 OVMax= 2.62D-05

 Cycle  10  Pass 1  IDiag  1:
 E= -389.155294535253     Delta-E=       -0.000000002219 Rises=F Damp=F
 DIIS: error= 4.11D-07 at cycle  10 NSaved=  10.
 NSaved=10 IEnMin=10 EnMin= -389.155294535253     IErMin=10 ErrMin= 4.11D-07
 ErrMax= 4.11D-07  0.00D+00 EMaxC= 1.00D-01 BMatC= 8.49D-11 BMatP= 6.53D-10
 IDIUse=1 WtCom= 1.00D+00 WtEn= 0.00D+00
 Coeff-Com:  0.803D-05-0.368D-04-0.304D-03-0.200D-03 0.163D-02 0.134D-01
 Coeff-Com:  0.123D-01-0.192D+00 0.978D-01 0.107D+01
 Coeff:      0.803D-05-0.368D-04-0.304D-03-0.200D-03 0.163D-02 0.134D-01
 Coeff:      0.123D-01-0.192D+00 0.978D-01 0.107D+01
 Gap=     0.500 Goal=   None    Shift=    0.000
 RMSDP=1.08D-07 MaxDP=3.31D-06 DE=-2.22D-09 OVMax= 8.54D-06

 Cycle  11  Pass 1  IDiag  1:
 E= -389.155294535476     Delta-E=       -0.000000000222 Rises=F Damp=F
 DIIS: error= 1.55D-07 at cycle  11 NSaved=  11.
 NSaved=11 IEnMin=11 EnMin= -389.155294535476     IErMin=11 ErrMin= 1.55D-07
 ErrMax= 1.55D-07  0.00D+00 EMaxC= 1.00D-01 BMatC= 5.88D-12 BMatP= 8.49D-11
 IDIUse=1 WtCom= 1.00D+00 WtEn= 0.00D+00
 Coeff-Com: -0.512D-06 0.460D-05 0.338D-04-0.107D-03-0.456D-03 0.980D-03
 Coeff-Com:  0.873D-02 0.499D-02-0.108D+00 0.923D-01 0.100D+01
 Coeff:     -0.512D-06 0.460D-05 0.338D-04-0.107D-03-0.456D-03 0.980D-03
 Coeff:      0.873D-02 0.499D-02-0.108D+00 0.923D-01 0.100D+01
 Gap=     0.500 Goal=   None    Shift=    0.000
 RMSDP=2.30D-08 MaxDP=1.01D-06 DE=-2.22D-10 OVMax= 2.03D-06

 Cycle  12  Pass 1  IDiag  1:
 E= -389.155294535504     Delta-E=       -0.000000000028 Rises=F Damp=F
 DIIS: error= 4.42D-08 at cycle  12 NSaved=  12.
 NSaved=12 IEnMin=12 EnMin= -389.155294535504     IErMin=12 ErrMin= 4.42D-08
 ErrMax= 4.42D-08  0.00D+00 EMaxC= 1.00D-01 BMatC= 9.45D-13 BMatP= 5.88D-12
 IDIUse=1 WtCom= 1.00D+00 WtEn= 0.00D+00
 Coeff-Com: -0.945D-06 0.495D-05 0.398D-04 0.175D-05-0.291D-03-0.124D-02
 Coeff-Com:  0.338D-03 0.206D-01-0.365D-01-0.106D+00 0.192D+00 0.931D+00
 Coeff:     -0.945D-06 0.495D-05 0.398D-04 0.175D-05-0.291D-03-0.124D-02
 Coeff:      0.338D-03 0.206D-01-0.365D-01-0.106D+00 0.192D+00 0.931D+00
 Gap=     0.500 Goal=   None    Shift=    0.000
 RMSDP=9.73D-09 MaxDP=2.60D-07 DE=-2.80D-11 OVMax= 6.37D-07

 SCF Done:  E(RHF) =  -389.155294536     A.U. after   12 cycles
            NFock= 12  Conv=0.97D-08     -V/T= 2.0014
 KE= 3.886244025766D+02 PE=-1.931191308260D+03 EE= 6.401330433952D+02
 Leave Link  502 at Fri Sep 17 16:07:51 2021, MaxMem=   524288000 cpu:              27.1 elap:              28.3
 (Enter /opt/gaussian/g16_legacy/l801.exe)
 ExpMin= 1.61D-01 ExpMax= 3.05D+03 ExpMxC= 4.57D+02 IAcc=3 IRadAn=         5 AccDes= 0.00D+00
 HarFok:  IExCor=  205 AccDes= 0.00D+00 IRadAn=         5 IDoV=-2 UseB2=F ITyADJ=14
 ICtDFT= 12500011 ScaDFX=  1.000000  1.000000  1.000000  1.000000
 Largest valence mixing into a core orbital is  1.97D-04
 Largest core mixing into a valence orbital is  3.52D-05
 Range of M.O.s used for correlation:    11   240
 NBasis=   240 NAE=    39 NBE=    39 NFC=    10 NFV=     0
 NROrb=    230 NOA=    29 NOB=    29 NVA=   201 NVB=   201
 Leave Link  801 at Fri Sep 17 16:07:53 2021, MaxMem=   524288000 cpu:               1.6 elap:               1.9
 (Enter /opt/gaussian/g16_legacy/l906.exe)
 Frozen-core derivative calculation, NFC=  10 NFV=   0.
 FulOut=F Deriv=T AODrv=T NAtomX=    28
   MMem=          89  MDisk=          29 MDiskD=          29
  W3Min=     2246400 MinDsk=     2795480 NBas6D=         240
 NBas2D=       29244    NTT=       28920    LW2=     2040000
    MDV=   523629461 MDiskM=       30186 NBas2p=       24099
 Fully direct method using O(ONN) memory.
 IMap=   1   2   3   4   5   6   7   8   9  10  11  12  13  14  15  16  17  18  19  20
 IMap=  21  22  23  24  25  26  27  28  29  30  31  32  33  34  35  36  37  38  39
 JobTyp=1 Pass  1:  I=  11 to  39 NPSUse=  1 ParTrn=F ParDer=F DoDerP=T.
 Spin components of T(2) and E(2):
     alpha-alpha T2 =       0.5711588522D-01 E2=     -0.1637351017D+00
     alpha-beta  T2 =       0.3617464979D+00 E2=     -0.1089194858D+01
     beta-beta   T2 =       0.5711588522D-01 E2=     -0.1637351017D+00
 The integrals were generated   1 times.
 ANorm=    0.1214898460D+01
 E2 =    -0.1416665061D+01 EUMP2 =    -0.39057195959666D+03
 Leave Link  906 at Fri Sep 17 16:11:54 2021, MaxMem=   524288000 cpu:             240.5 elap:             241.0
 (Enter /opt/gaussian/g16_legacy/l1002.exe)
 Minotr:  Closed shell wavefunction.
          Computing MP2/KS-MP2 derivatives.
          Using Z-Vector for PSCF gradient.
          Skipping F1 and S1 gradient terms here.
          IDoAtm=1111111111111111111111111111
          Frozen-core window.
          Direct CPHF calculation.
          Differentiating once with respect to electric field.
                with respect to dipole field.
          Differentiating once with respect to nuclear coordinates.
          Requested convergence is 1.0D-10 RMS, and 1.0D-09 maximum.
          NewPWx=F KeepS1=T KeepF1=T KeepIn=T MapXYZ=F SortEE=F KeepMc=T.
 Keep R1 ints in memory in canonical form, NReq=425201067.
 FoFCou: FMM=F IPFlag=           0 FMFlag=           0 FMFlg1=           0
         NFxFlg=           0 DoJE=F BraDBF=F KetDBF=F FulRan=T
         wScrn=  0.000000 ICntrl=       600 IOpCl=  0 I1Cent=           0 NGrid=           0
         NMat0=    1 NMatS0=  28920 NMatT0=    0 NMatD0=    1 NMtDS0=    0 NMtDT0=    0
 Symmetry not used in FoFCou.
 Two-electron integral symmetry not used.
          MDV=     524288000 using IRadAn=       5.
          Solving linear equations separately, MaxMat=       0.
          There are     1 degrees of freedom in the 1st order CPHF.  IDoFFX=0 NUNeed=     1.
 LinEq1:  Iter=  0 NonCon=     1 RMS=2.55D-03 Max=4.26D-02 NDo=     1
 AX will form     1 AO Fock derivatives at one time.
 LinEq1:  Iter=  1 NonCon=     1 RMS=6.89D-04 Max=1.12D-02 NDo=     1
 LinEq1:  Iter=  2 NonCon=     1 RMS=1.61D-04 Max=4.13D-03 NDo=     1
 LinEq1:  Iter=  3 NonCon=     1 RMS=4.42D-05 Max=5.12D-04 NDo=     1
 LinEq1:  Iter=  4 NonCon=     1 RMS=1.99D-05 Max=8.26D-04 NDo=     1
 LinEq1:  Iter=  5 NonCon=     1 RMS=4.81D-06 Max=8.80D-05 NDo=     1
 LinEq1:  Iter=  6 NonCon=     1 RMS=1.45D-06 Max=2.32D-05 NDo=     1
 LinEq1:  Iter=  7 NonCon=     1 RMS=4.00D-07 Max=4.12D-06 NDo=     1
 LinEq1:  Iter=  8 NonCon=     1 RMS=8.44D-08 Max=1.47D-06 NDo=     1
 LinEq1:  Iter=  9 NonCon=     1 RMS=2.21D-08 Max=5.47D-07 NDo=     1
 LinEq1:  Iter= 10 NonCon=     1 RMS=7.37D-09 Max=1.94D-07 NDo=     1
 LinEq1:  Iter= 11 NonCon=     1 RMS=2.35D-09 Max=7.26D-08 NDo=     1
 LinEq1:  Iter= 12 NonCon=     1 RMS=8.55D-10 Max=1.38D-08 NDo=     1
 LinEq1:  Iter= 13 NonCon=     1 RMS=2.39D-10 Max=3.46D-09 NDo=     1
 LinEq1:  Iter= 14 NonCon=     0 RMS=5.52D-11 Max=6.92D-10 NDo=     1
 Linear equations converged to 1.000D-10 1.000D-09 after    14 iterations.
 End of Minotr F.D. properties file   721 does not exist.
 End of Minotr F.D. properties file   722 does not exist.
 End of Minotr F.D. properties file   788 does not exist.
 Leave Link 1002 at Fri Sep 17 16:12:27 2021, MaxMem=   524288000 cpu:              32.4 elap:              32.5
 (Enter /opt/gaussian/g16_legacy/l601.exe)
 Copying SCF densities to generalized density rwf, IOpCl= 0 IROHF=0.

 **********************************************************************

            Population analysis using the SCF density.

 **********************************************************************

 Orbital symmetries:
       Occupied  (A) (A) (A) (A) (A) (A) (A) (A) (A) (A) (A) (A)
                 (A) (A) (A) (A) (A) (A) (A) (A) (A) (A) (A) (A)
                 (A) (A) (A) (A) (A) (A) (A) (A) (A) (A) (A) (A)
                 (A) (A) (A)
       Virtual   (A) (A) (A) (A) (A) (A) (A) (A) (A) (A) (A) (A)
                 (A) (A) (A) (A) (A) (A) (A) (A) (A) (A) (A) (A)
                 (A) (A) (A) (A) (A) (A) (A) (A) (A) (A) (A) (A)
                 (A) (A) (A) (A) (A) (A) (A) (A) (A) (A) (A) (A)
                 (A) (A) (A) (A) (A) (A) (A) (A) (A) (A) (A) (A)
                 (A) (A) (A) (A) (A) (A) (A) (A) (A) (A) (A) (A)
                 (A) (A) (A) (A) (A) (A) (A) (A) (A) (A) (A) (A)
                 (A) (A) (A) (A) (A) (A) (A) (A) (A) (A) (A) (A)
                 (A) (A) (A) (A) (A) (A) (A) (A) (A) (A) (A) (A)
                 (A) (A) (A) (A) (A) (A) (A) (A) (A) (A) (A) (A)
                 (A) (A) (A) (A) (A) (A) (A) (A) (A) (A) (A) (A)
                 (A) (A) (A) (A) (A) (A) (A) (A) (A) (A) (A) (A)
                 (A) (A) (A) (A) (A) (A) (A) (A) (A) (A) (A) (A)
                 (A) (A) (A) (A) (A) (A) (A) (A) (A) (A) (A) (A)
                 (A) (A) (A) (A) (A) (A) (A) (A) (A) (A) (A) (A)
                 (A) (A) (A) (A) (A) (A) (A) (A) (A) (A) (A) (A)
                 (A) (A) (A) (A) (A) (A) (A) (A) (A)
 The electronic state is 1-A.
 Alpha  occ. eigenvalues --  -11.23060 -11.22491 -11.21994 -11.21919 -11.21895
 Alpha  occ. eigenvalues --  -11.21650 -11.21538 -11.21500 -11.21456 -11.21436
 Alpha  occ. eigenvalues --   -1.10615  -1.08328  -1.01892  -0.98024  -0.93647
 Alpha  occ. eigenvalues --   -0.91775  -0.86738  -0.82691  -0.70609  -0.69413
 Alpha  occ. eigenvalues --   -0.64402  -0.61335  -0.60398  -0.59007  -0.58077
 Alpha  occ. eigenvalues --   -0.56878  -0.55469  -0.55040  -0.53551  -0.51978
 Alpha  occ. eigenvalues --   -0.51779  -0.51260  -0.50451  -0.49764  -0.47238
 Alpha  occ. eigenvalues --   -0.46642  -0.44235  -0.33254  -0.31612
 Alpha virt. eigenvalues --    0.18418   0.19607   0.22268   0.24508   0.24867
 Alpha virt. eigenvalues --    0.27280   0.28582   0.29021   0.30342   0.30570
 Alpha virt. eigenvalues --    0.31452   0.32295   0.32993   0.33605   0.33918
 Alpha virt. eigenvalues --    0.34860   0.36107   0.37175   0.38359   0.39994
 Alpha virt. eigenvalues --    0.40807   0.41939   0.42662   0.44321   0.45312
 Alpha virt. eigenvalues --    0.51885   0.54071   0.61042   0.62387   0.69420
 Alpha virt. eigenvalues --    0.71419   0.71712   0.74322   0.75991   0.76601
 Alpha virt. eigenvalues --    0.77889   0.78838   0.80149   0.80438   0.82526
 Alpha virt. eigenvalues --    0.82864   0.85807   0.89230   0.90312   0.92128
 Alpha virt. eigenvalues --    0.93066   0.94945   0.96558   0.97592   0.99410
 Alpha virt. eigenvalues --    0.99666   1.01113   1.02715   1.04774   1.06343
 Alpha virt. eigenvalues --    1.07245   1.08349   1.08463   1.10882   1.12200
 Alpha virt. eigenvalues --    1.13084   1.13493   1.14141   1.15110   1.15426
 Alpha virt. eigenvalues --    1.15971   1.16403   1.17989   1.18282   1.20093
 Alpha virt. eigenvalues --    1.20924   1.22026   1.22905   1.24886   1.26884
 Alpha virt. eigenvalues --    1.29778   1.39910   1.40850   1.44073   1.45166
 Alpha virt. eigenvalues --    1.46114   1.53923   1.55258   1.57486   1.59005
 Alpha virt. eigenvalues --    1.61319   1.62899   1.65442   1.68693   1.70720
 Alpha virt. eigenvalues --    1.74995   1.83304   1.90941   1.92637   1.95889
 Alpha virt. eigenvalues --    1.98114   2.01342   2.02514   2.04962   2.08418
 Alpha virt. eigenvalues --    2.09278   2.11238   2.11879   2.13549   2.13760
 Alpha virt. eigenvalues --    2.15745   2.17934   2.19180   2.23537   2.27675
 Alpha virt. eigenvalues --    2.27928   2.30155   2.32119   2.34933   2.35556
 Alpha virt. eigenvalues --    2.35640   2.35788   2.39412   2.39796   2.40225
 Alpha virt. eigenvalues --    2.41252   2.41846   2.42904   2.44985   2.45577
 Alpha virt. eigenvalues --    2.47188   2.49015   2.49667   2.49765   2.53203
 Alpha virt. eigenvalues --    2.56184   2.58403   2.60485   2.62609   2.64595
 Alpha virt. eigenvalues --    2.66045   2.67901   2.71570   2.72559   2.74073
 Alpha virt. eigenvalues --    2.76096   2.77694   2.80998   2.82551   2.84075
 Alpha virt. eigenvalues --    2.86957   2.90348   2.92351   2.93717   2.93881
 Alpha virt. eigenvalues --    2.97258   2.98947   3.00899   3.02347   3.04609
 Alpha virt. eigenvalues --    3.06570   3.07048   3.09533   3.11567   3.16238
 Alpha virt. eigenvalues --    3.17173   3.17504   3.19752   3.20508   3.20975
 Alpha virt. eigenvalues --    3.22292   3.25236   3.26472   3.27442   3.37027
 Alpha virt. eigenvalues --    3.39001   3.44378   3.45749   3.55479   3.57308
 Alpha virt. eigenvalues --    3.58500   3.60433   3.67988   3.73335   3.78351
 Alpha virt. eigenvalues --    3.78759   3.80290   3.81203   3.82237   3.82861
 Alpha virt. eigenvalues --    3.83548   3.85734   3.87948   3.89127   3.90861
 Alpha virt. eigenvalues --    3.96058   4.59176   4.62294   4.74495   4.82466
 Alpha virt. eigenvalues --    4.89198   4.92414   4.93232   5.07345   5.10307
 Alpha virt. eigenvalues --    5.16932
          Condensed to atoms (all electrons):
               1          2          3          4          5          6
     1  C    5.000748   0.414393   0.412397   0.339577  -0.058808  -0.000422
     2  H    0.414393   0.576688  -0.030332  -0.040662   0.003304  -0.000036
     3  H    0.412397  -0.030332   0.583804  -0.045119  -0.004633  -0.000305
     4  C    0.339577  -0.040662  -0.045119   4.957278   0.350740  -0.046052
     5  C   -0.058808   0.003304  -0.004633   0.350740   4.895161   0.399647
     6  H   -0.000422  -0.000036  -0.000305  -0.046052   0.399647   0.598115
     7  H   -0.003455  -0.000014   0.002509  -0.043204   0.397605  -0.035177
     8  H    0.003651  -0.000107   0.000093  -0.041407   0.406591  -0.028117
     9  C   -0.043515  -0.002305   0.001833   0.696630  -0.045825  -0.000964
    10  H    0.003081   0.000055  -0.000112  -0.036443  -0.006440   0.000130
    11  C   -0.007010  -0.002041   0.000131  -0.050645   0.003400  -0.000102
    12  H   -0.002039  -0.001243   0.000011  -0.000450   0.000090   0.000001
    13  H    0.000233  -0.000035  -0.000010   0.000512  -0.000102   0.000015
    14  H    0.000216   0.000157   0.000029  -0.001298  -0.000114  -0.000005
    15  C   -0.000105  -0.000001  -0.000032   0.000001  -0.000000  -0.000000
    16  H   -0.000002   0.000002  -0.000002   0.000000  -0.000000  -0.000000
    17  H   -0.000004   0.000000   0.000001   0.000000  -0.000000   0.000000
    18  H    0.000021  -0.000001  -0.000005  -0.000000   0.000000   0.000000
    19  C   -0.002758   0.000602   0.000933  -0.000035   0.000007   0.000017
    20  C    0.000487  -0.000011   0.000129  -0.000018  -0.000017  -0.000029
    21  H    0.000080  -0.000011   0.000148  -0.000063   0.000095   0.000222
    22  H    0.000071  -0.000000  -0.000066  -0.000002   0.000000  -0.000001
    23  H   -0.000041   0.000000   0.000012   0.000001  -0.000000  -0.000000
    24  C   -0.062588  -0.001370  -0.000486   0.006103  -0.000075  -0.000082
    25  H   -0.000350   0.001131   0.000186  -0.000118  -0.000002  -0.000000
    26  C    0.325383  -0.041384  -0.042901  -0.056892  -0.000803   0.000832
    27  H   -0.040027   0.004046  -0.002359  -0.002268  -0.000487  -0.000581
    28  H   -0.045280  -0.002680   0.004395  -0.001367   0.000304   0.000016
               7          8          9         10         11         12
     1  C   -0.003455   0.003651  -0.043515   0.003081  -0.007010  -0.002039
     2  H   -0.000014  -0.000107  -0.002305   0.000055  -0.002041  -0.001243
     3  H    0.002509   0.000093   0.001833  -0.000112   0.000131   0.000011
     4  C   -0.043204  -0.041407   0.696630  -0.036443  -0.050645  -0.000450
     5  C    0.397605   0.406591  -0.045825  -0.006440   0.003400   0.000090
     6  H   -0.035177  -0.028117  -0.000964   0.000130  -0.000102   0.000001
     7  H    0.593353  -0.027588  -0.000478   0.000245  -0.000113  -0.000001
     8  H   -0.027588   0.570200  -0.002762   0.002175   0.000140   0.000004
     9  C   -0.000478  -0.002762   4.940025   0.404573   0.338347  -0.041990
    10  H    0.000245   0.002175   0.404573   0.559851  -0.043633   0.003343
    11  C   -0.000113   0.000140   0.338347  -0.043633   4.903471   0.408029
    12  H   -0.000001   0.000004  -0.041990   0.003343   0.408029   0.575213
    13  H   -0.000004  -0.000008  -0.042711  -0.002622   0.402927  -0.029455
    14  H    0.000021  -0.000004  -0.044536  -0.000244   0.400270  -0.027468
    15  C    0.000000   0.000000  -0.000000   0.000000   0.000000  -0.000000
    16  H   -0.000000  -0.000000   0.000000   0.000000  -0.000000   0.000000
    17  H   -0.000000   0.000000  -0.000000   0.000000  -0.000000   0.000000
    18  H   -0.000000  -0.000000   0.000000  -0.000000  -0.000000  -0.000000
    19  C   -0.000001  -0.000000  -0.000002   0.000000   0.000000   0.000001
    20  C   -0.000002   0.000000  -0.000000  -0.000000  -0.000000   0.000000
    21  H    0.000005  -0.000001  -0.000001   0.000000  -0.000000   0.000000
    22  H    0.000000  -0.000000   0.000000  -0.000000   0.000000  -0.000000
    23  H    0.000000   0.000000   0.000000   0.000000   0.000000   0.000000
    24  C    0.000000   0.000002  -0.000010   0.000002  -0.000022   0.000034
    25  H    0.000000   0.000000   0.000009  -0.000000  -0.000002   0.000035
    26  C    0.000024  -0.000094  -0.003334  -0.000120   0.000493  -0.000174
    27  H    0.000076  -0.000024   0.000498   0.000002  -0.000024  -0.000005
    28  H    0.000006  -0.000006   0.000946  -0.000032   0.000106   0.000114
              13         14         15         16         17         18
     1  C    0.000233   0.000216  -0.000105  -0.000002  -0.000004   0.000021
     2  H   -0.000035   0.000157  -0.000001   0.000002   0.000000  -0.000001
     3  H   -0.000010   0.000029  -0.000032  -0.000002   0.000001  -0.000005
     4  C    0.000512  -0.001298   0.000001   0.000000   0.000000  -0.000000
     5  C   -0.000102  -0.000114  -0.000000  -0.000000  -0.000000   0.000000
     6  H    0.000015  -0.000005  -0.000000  -0.000000   0.000000   0.000000
     7  H   -0.000004   0.000021   0.000000  -0.000000  -0.000000  -0.000000
     8  H   -0.000008  -0.000004   0.000000  -0.000000   0.000000  -0.000000
     9  C   -0.042711  -0.044536  -0.000000   0.000000  -0.000000   0.000000
    10  H   -0.002622  -0.000244   0.000000   0.000000   0.000000  -0.000000
    11  C    0.402927   0.400270   0.000000  -0.000000  -0.000000  -0.000000
    12  H   -0.029455  -0.027468  -0.000000   0.000000   0.000000  -0.000000
    13  H    0.585783  -0.033305  -0.000000   0.000000  -0.000000   0.000000
    14  H   -0.033305   0.585292   0.000000  -0.000000   0.000000  -0.000000
    15  C   -0.000000   0.000000   4.903468   0.405373   0.399274   0.396993
    16  H    0.000000  -0.000000   0.405373   0.568075  -0.027575  -0.027355
    17  H   -0.000000   0.000000   0.399274  -0.027575   0.593113  -0.034896
    18  H    0.000000  -0.000000   0.396993  -0.027355  -0.034896   0.594250
    19  C    0.000000  -0.000000   0.351809  -0.040402  -0.045810  -0.044202
    20  C   -0.000000   0.000000  -0.065375   0.003697  -0.001093  -0.002146
    21  H    0.000000  -0.000000   0.003707  -0.000109  -0.000024  -0.000072
    22  H    0.000000  -0.000000  -0.003425   0.000012  -0.000508   0.002838
    23  H   -0.000000   0.000000  -0.001680  -0.000080   0.002543  -0.000367
    24  C   -0.000002   0.000002  -0.044524  -0.002345  -0.001111  -0.000623
    25  H   -0.000000  -0.000000  -0.006704   0.002204   0.000153   0.000223
    26  C    0.000079  -0.000045   0.003141   0.000141  -0.000123  -0.000086
    27  H    0.000000  -0.000000   0.000062   0.000006   0.000004  -0.000003
    28  H   -0.000059   0.000018  -0.000098  -0.000011   0.000012  -0.000002
              19         20         21         22         23         24
     1  C   -0.002758   0.000487   0.000080   0.000071  -0.000041  -0.062588
     2  H    0.000602  -0.000011  -0.000011  -0.000000   0.000000  -0.001370
     3  H    0.000933   0.000129   0.000148  -0.000066   0.000012  -0.000486
     4  C   -0.000035  -0.000018  -0.000063  -0.000002   0.000001   0.006103
     5  C    0.000007  -0.000017   0.000095   0.000000  -0.000000  -0.000075
     6  H    0.000017  -0.000029   0.000222  -0.000001  -0.000000  -0.000082
     7  H   -0.000001  -0.000002   0.000005   0.000000   0.000000   0.000000
     8  H   -0.000000   0.000000  -0.000001  -0.000000   0.000000   0.000002
     9  C   -0.000002  -0.000000  -0.000001   0.000000   0.000000  -0.000010
    10  H    0.000000  -0.000000   0.000000  -0.000000   0.000000   0.000002
    11  C    0.000000  -0.000000  -0.000000   0.000000   0.000000  -0.000022
    12  H    0.000001   0.000000   0.000000  -0.000000   0.000000   0.000034
    13  H    0.000000  -0.000000   0.000000   0.000000  -0.000000  -0.000002
    14  H   -0.000000   0.000000  -0.000000  -0.000000   0.000000   0.000002
    15  C    0.351809  -0.065375   0.003707  -0.003425  -0.001680  -0.044524
    16  H   -0.040402   0.003697  -0.000109   0.000012  -0.000080  -0.002345
    17  H   -0.045810  -0.001093  -0.000024  -0.000508   0.002543  -0.001111
    18  H   -0.044202  -0.002146  -0.000072   0.002838  -0.000367  -0.000623
    19  C    4.920199   0.348918  -0.036969  -0.043839  -0.043925   0.695492
    20  C    0.348918   4.906860   0.405946   0.402435   0.398562  -0.043605
    21  H   -0.036969   0.405946   0.570722  -0.029643  -0.026871  -0.002890
    22  H   -0.043839   0.402435  -0.029643   0.585557  -0.033088   0.000408
    23  H   -0.043925   0.398562  -0.026871  -0.033088   0.583095  -0.000743
    24  C    0.695492  -0.043605  -0.002890   0.000408  -0.000743   4.962309
    25  H   -0.035977   0.003360   0.000053  -0.000112  -0.000124   0.402997
    26  C   -0.048861  -0.007183  -0.002349   0.000276   0.000191   0.341671
    27  H    0.000558  -0.001878  -0.001473  -0.000035   0.000040  -0.043146
    28  H    0.000972   0.000145   0.000041  -0.000012   0.000033  -0.044012
              25         26         27         28
     1  C   -0.000350   0.325383  -0.040027  -0.045280
     2  H    0.001131  -0.041384   0.004046  -0.002680
     3  H    0.000186  -0.042901  -0.002359   0.004395
     4  C   -0.000118  -0.056892  -0.002268  -0.001367
     5  C   -0.000002  -0.000803  -0.000487   0.000304
     6  H   -0.000000   0.000832  -0.000581   0.000016
     7  H    0.000000   0.000024   0.000076   0.000006
     8  H    0.000000  -0.000094  -0.000024  -0.000006
     9  C    0.000009  -0.003334   0.000498   0.000946
    10  H   -0.000000  -0.000120   0.000002  -0.000032
    11  C   -0.000002   0.000493  -0.000024   0.000106
    12  H    0.000035  -0.000174  -0.000005   0.000114
    13  H   -0.000000   0.000079   0.000000  -0.000059
    14  H   -0.000000  -0.000045  -0.000000   0.000018
    15  C   -0.006704   0.003141   0.000062  -0.000098
    16  H    0.002204   0.000141   0.000006  -0.000011
    17  H    0.000153  -0.000123   0.000004   0.000012
    18  H    0.000223  -0.000086  -0.000003  -0.000002
    19  C   -0.035977  -0.048861   0.000558   0.000972
    20  C    0.003360  -0.007183  -0.001878   0.000145
    21  H    0.000053  -0.002349  -0.001473   0.000041
    22  H   -0.000112   0.000276  -0.000035  -0.000012
    23  H   -0.000124   0.000191   0.000040   0.000033
    24  C    0.402997   0.341671  -0.043146  -0.044012
    25  H    0.558288  -0.041950   0.003305  -0.003532
    26  C   -0.041950   4.978468   0.414998   0.415019
    27  H    0.003305   0.414998   0.579625  -0.029793
    28  H   -0.003532   0.415019  -0.029793   0.581197
 Mulliken charges:
               1
     1  C   -0.233935
     2  H    0.121853
     3  H    0.119754
     4  C    0.015201
     5  C   -0.339636
     6  H    0.112876
     7  H    0.116192
     8  H    0.117263
     9  C   -0.154428
    10  H    0.116189
    11  C   -0.353721
    12  H    0.115949
    13  H    0.118766
    14  H    0.121015
    15  C   -0.341884
    16  H    0.118372
    17  H    0.116045
    18  H    0.115434
    19  C    0.023272
    20  C   -0.349182
    21  H    0.119456
    22  H    0.119134
    23  H    0.122442
    24  C   -0.161383
    25  H    0.116927
    26  C   -0.234416
    27  H    0.118884
    28  H    0.123560
 Sum of Mulliken charges =  -0.00000
 Mulliken charges with hydrogens summed into heavy atoms:
               1
     1  C    0.007672
     4  C    0.015201
     5  C    0.006695
     9  C   -0.038239
    11  C    0.002010
    15  C    0.007968
    19  C    0.023272
    20  C    0.011849
    24  C   -0.044457
    26  C    0.008028
 Electronic spatial extent (au):  <R**2>=           2544.9870
 Charge=              0.0000 electrons
 Dipole moment (field-independent basis, Debye):
    X=              0.3491    Y=              0.1466    Z=              0.0263  Tot=              0.3795
 Quadrupole moment (field-independent basis, Debye-Ang):
   XX=            -63.8827   YY=            -63.9192   ZZ=            -67.2164
   XY=              0.9682   XZ=              0.9091   YZ=             -0.2408
 Traceless Quadrupole moment (field-independent basis, Debye-Ang):
   XX=              1.1234   YY=              1.0869   ZZ=             -2.2103
   XY=              0.9682   XZ=              0.9091   YZ=             -0.2408
 Octapole moment (field-independent basis, Debye-Ang**2):
  XXX=              0.9280  YYY=             -2.8084  ZZZ=              0.8878  XYY=             -0.2822
  XXY=              1.7952  XXZ=             -2.7153  XZZ=              1.8052  YZZ=              1.3733
  YYZ=              0.5298  XYZ=             -0.3802
 Hexadecapole moment (field-independent basis, Debye-Ang**3):
 XXXX=          -2708.1299 YYYY=           -641.3387 ZZZZ=           -161.4652 XXXY=              7.6696
 XXXZ=             11.8776 YYYX=             -8.1799 YYYZ=             -1.4903 ZZZX=              2.8136
 ZZZY=              1.9626 XXYY=           -565.0378 XXZZ=           -492.0527 YYZZ=           -130.8319
 XXYZ=             -3.0929 YYXZ=              1.7820 ZZXY=              8.1577
 N-N= 5.132785677532D+02 E-N=-1.931191307260D+03  KE= 3.886244025766D+02
 No NMR shielding tensors so no spin-rotation constants.
 Leave Link  601 at Fri Sep 17 16:12:27 2021, MaxMem=   524288000 cpu:               0.4 elap:               0.7
 (Enter /opt/gaussian/g16_legacy/l701.exe)
 ... and contract with generalized density number  2.
 Compute integral first derivatives.
 Leave Link  701 at Fri Sep 17 16:12:28 2021, MaxMem=   524288000 cpu:               0.3 elap:               0.3
 (Enter /opt/gaussian/g16_legacy/l702.exe)
 L702 exits ... SP integral derivatives will be done elsewhere.
 Leave Link  702 at Fri Sep 17 16:12:28 2021, MaxMem=   524288000 cpu:               0.1 elap:               0.1
 (Enter /opt/gaussian/g16_legacy/l703.exe)
 Integral derivatives from FoFJK, PRISM(SPDF).
 Compute integral first derivatives, UseDBF=F ICtDFT=           0.
 Calling FoFJK, ICntrl=  10002127 FMM=F ISym2X=0 I1Cent= 0 IOpClX= 0 NMat=1 NMatS=1 NMatT=0.
 FoFJK:  IHMeth= 1 ICntrl=10002127 DoSepK=F KAlg= 0 I1Cent=           0 FoldK=F
 IRaf=         0 NMat=       1 IRICut=       1 DoRegI=T DoRafI=F ISym2E= 0 IDoP0=0 IntGTp=1.
 FoFCou: FMM=F IPFlag=           0 FMFlag=      100000 FMFlg1=         800
         NFxFlg=           0 DoJE=F BraDBF=F KetDBF=F FulRan=T
         wScrn=  0.000000 ICntrl=  10002127 IOpCl=  0 I1Cent=           0 NGrid=           0
         NMat0=    1 NMatS0=      1 NMatT0=    0 NMatD0=    1 NMtDS0=    0 NMtDT0=    0
 Symmetry not used in FoFCou.
 Leave Link  703 at Fri Sep 17 16:13:02 2021, MaxMem=   524288000 cpu:              34.0 elap:              34.0
 (Enter /opt/gaussian/g16_legacy/l716.exe)
 Dipole        = 1.00100456D-01 3.49517604D-02 3.66554767D-03
 ***** Axes restored to original set *****
 -------------------------------------------------------------------
 Center     Atomic                   Forces (Hartrees/Bohr)
 Number     Number              X              Y              Z
 -------------------------------------------------------------------
      1        6          -0.008442283    0.000044860   -0.003192116
      2        1           0.000581630   -0.000950210    0.003794794
      3        1           0.000059616    0.000704775    0.004388765
      4        6          -0.003205769   -0.002270151   -0.004757425
      5        6          -0.002625777   -0.000942168    0.001015856
      6        1           0.000234785   -0.001344229   -0.003056727
      7        1           0.001392502   -0.000036685    0.003044810
      8        1           0.002733976    0.003091439   -0.000428936
      9        6           0.002432198   -0.001113246    0.002529702
     10        1           0.003324787   -0.001173609   -0.000216195
     11        6           0.000786750    0.002660774    0.000004152
     12        1          -0.001910977   -0.002732344   -0.000720630
     13        1           0.000015288    0.000528188   -0.003431947
     14        1           0.000247003    0.002405819    0.002401008
     15        6          -0.001140853    0.003017494   -0.001119643
     16        1          -0.000753117   -0.004134804    0.001164777
     17        1           0.000482744   -0.001034112   -0.003164907
     18        1           0.001669700    0.000452650    0.003077549
     19        6          -0.001884749    0.003806993   -0.003529517
     20        6          -0.003576621   -0.002867687    0.000895530
     21        1           0.001494197    0.003140511    0.000462443
     22        1           0.000746572    0.001700240    0.003191565
     23        1           0.000553716   -0.001321419   -0.002812069
     24        6          -0.001167438   -0.000652189    0.004885226
     25        1           0.002659670   -0.002008915   -0.000612713
     26        6           0.006785260    0.002459673    0.002661996
     27        1          -0.000135533    0.000828525   -0.003125388
     28        1          -0.001357278   -0.002260174   -0.003349963
 -------------------------------------------------------------------
 Cartesian Forces:  Max     0.008442283 RMS     0.002535618
 Leave Link  716 at Fri Sep 17 16:13:02 2021, MaxMem=   524288000 cpu:               0.1 elap:               0.1
 (Enter /opt/gaussian/g16_legacy/l103.exe)

 GradGradGradGradGradGradGradGradGradGradGradGradGradGradGradGradGradGrad
 Berny optimization.
 FormGI is forming the generalized inverse of G from B-inverse, IUseBI=4.
 Internal  Forces:  Max     0.004126404 RMS     0.001893425
 Search for a local minimum.
 Step number   1 out of a maximum of  138
 All quantities printed in internal units (Hartrees-Bohrs-Radians)
 RMS Force = .18934D-02 SwitMx=.10000D-02 MixMth= 1
 Mixed Optimization -- RFO/linear search
 Second derivative matrix not updated -- first step.
 ITU=  0
     Eigenvalues ---    0.00342   0.00571   0.00667   0.00681   0.00694
     Eigenvalues ---    0.00715   0.00819   0.01219   0.01287   0.01570
     Eigenvalues ---    0.01642   0.02780   0.02784   0.04014   0.04133
     Eigenvalues ---    0.05350   0.05403   0.06981   0.07039   0.07086
     Eigenvalues ---    0.07092   0.07265   0.07300   0.07347   0.07505
     Eigenvalues ---    0.09279   0.09365   0.12769   0.12846   0.15999
     Eigenvalues ---    0.15999   0.16000   0.16000   0.16000   0.16000
     Eigenvalues ---    0.16000   0.16000   0.16000   0.16000   0.16000
     Eigenvalues ---    0.16000   0.16000   0.16000   0.21859   0.21867
     Eigenvalues ---    0.22000   0.22000   0.24993   0.24996   0.24998
     Eigenvalues ---    0.24999   0.29233   0.30877   0.31607   0.31710
     Eigenvalues ---    0.31810   0.31978   0.32803   0.33861   0.33932
     Eigenvalues ---    0.34071   0.34189   0.34222   0.34226   0.34246
     Eigenvalues ---    0.34248   0.34252   0.34259   0.34266   0.34283
     Eigenvalues ---    0.34294   0.34336   0.34537   0.34560   0.34785
     Eigenvalues ---    0.34850   0.55499   0.55572
 RFO step:  Lambda=-2.86815926D-03 EMin= 3.41781425D-03
 Linear search not attempted -- first point.
 Iteration  1 RMS(Cart)=  0.04041048 RMS(Int)=  0.00070788
 Iteration  2 RMS(Cart)=  0.00101716 RMS(Int)=  0.00015625
 Iteration  3 RMS(Cart)=  0.00000055 RMS(Int)=  0.00015625
 ITry= 1 IFail=0 DXMaxC= 1.28D-01 DCOld= 1.00D+10 DXMaxT= 3.00D-01 DXLimC= 3.00D+00 Rises=F
 Variable       Old X    -DE/DX   Delta X   Delta X   Delta X     New X
                                 (Linear)    (Quad)   (Total)
    R1        2.07210  -0.00289   0.00000  -0.00841  -0.00841   2.06369
    R2        2.07566  -0.00311   0.00000  -0.00912  -0.00912   2.06654
    R3        2.86247  -0.00345   0.00000  -0.01108  -0.01108   2.85139
    R4        2.89518   0.00158   0.00000   0.00535   0.00535   2.90053
    R5        2.84868  -0.00062   0.00000  -0.00195  -0.00195   2.84673
    R6        2.54691  -0.00390   0.00000  -0.00698  -0.00698   2.53993
    R7        2.06855  -0.00177   0.00000  -0.00511  -0.00511   2.06343
    R8        2.06907  -0.00213   0.00000  -0.00616  -0.00616   2.06290
    R9        2.06958  -0.00374   0.00000  -0.01085  -0.01085   2.05873
   R10        2.05919  -0.00216   0.00000  -0.00615  -0.00615   2.05304
   R11        2.82699   0.00309   0.00000   0.00933   0.00933   2.83632
   R12        2.06396  -0.00301   0.00000  -0.00863  -0.00863   2.05533
   R13        2.06884  -0.00264   0.00000  -0.00763  -0.00763   2.06121
   R14        2.06767  -0.00159   0.00000  -0.00460  -0.00460   2.06307
   R15        2.06950  -0.00397   0.00000  -0.01149  -0.01149   2.05801
   R16        2.06916  -0.00200   0.00000  -0.00579  -0.00579   2.06337
   R17        2.06913  -0.00200   0.00000  -0.00578  -0.00578   2.06335
   R18        2.84677  -0.00073   0.00000  -0.00227  -0.00227   2.84450
   R19        2.84185  -0.00046   0.00000  -0.00143  -0.00143   2.84041
   R20        2.54627  -0.00325   0.00000  -0.00581  -0.00581   2.54046
   R21        2.06432  -0.00294   0.00000  -0.00845  -0.00845   2.05588
   R22        2.07012  -0.00272   0.00000  -0.00789  -0.00789   2.06222
   R23        2.06894  -0.00192   0.00000  -0.00555  -0.00555   2.06340
   R24        2.06026  -0.00208   0.00000  -0.00592  -0.00592   2.05433
   R25        2.84493  -0.00137   0.00000  -0.00426  -0.00426   2.84067
   R26        2.06837  -0.00238   0.00000  -0.00688  -0.00688   2.06149
   R27        2.07445  -0.00277   0.00000  -0.00808  -0.00808   2.06637
    A1        1.82993   0.00206   0.00000   0.02222   0.02205   1.85198
    A2        1.93133  -0.00018   0.00000   0.00551   0.00553   1.93686
    A3        1.91979  -0.00201   0.00000  -0.01376  -0.01380   1.90599
    A4        1.90136  -0.00009   0.00000   0.00123   0.00124   1.90260
    A5        1.91814  -0.00275   0.00000  -0.02406  -0.02409   1.89405
    A6        1.95885   0.00287   0.00000   0.00937   0.00941   1.96825
    A7        2.00717   0.00172   0.00000   0.00713   0.00658   2.01375
    A8        2.17223  -0.00413   0.00000  -0.01594  -0.01645   2.15578
    A9        2.10358   0.00242   0.00000   0.00997   0.00941   2.11299
   A10        1.92851   0.00227   0.00000   0.01213   0.01216   1.94066
   A11        1.92481   0.00165   0.00000   0.00903   0.00905   1.93387
   A12        1.95934  -0.00267   0.00000  -0.01344  -0.01340   1.94594
   A13        1.89456  -0.00305   0.00000  -0.02449  -0.02448   1.87008
   A14        1.87690   0.00056   0.00000   0.00555   0.00558   1.88249
   A15        1.87753   0.00112   0.00000   0.01039   0.01042   1.88795
   A16        2.06933  -0.00196   0.00000  -0.01348  -0.01350   2.05583
   A17        2.22585  -0.00182   0.00000  -0.00811  -0.00813   2.21773
   A18        1.98788   0.00378   0.00000   0.02176   0.02174   2.00962
   A19        1.98077  -0.00284   0.00000  -0.01743  -0.01735   1.96342
   A20        1.91007   0.00237   0.00000   0.01551   0.01546   1.92553
   A21        1.91729   0.00386   0.00000   0.02273   0.02269   1.93998
   A22        1.87281   0.00045   0.00000   0.00449   0.00456   1.87736
   A23        1.89306  -0.00096   0.00000  -0.00758  -0.00749   1.88557
   A24        1.88724  -0.00307   0.00000  -0.01882  -0.01898   1.86826
   A25        1.87872   0.00092   0.00000   0.00797   0.00800   1.88672
   A26        1.87910   0.00093   0.00000   0.00940   0.00944   1.88854
   A27        1.96068  -0.00278   0.00000  -0.01391  -0.01388   1.94681
   A28        1.89482  -0.00313   0.00000  -0.02542  -0.02541   1.86941
   A29        1.92350   0.00174   0.00000   0.00877   0.00879   1.93229
   A30        1.92500   0.00220   0.00000   0.01236   0.01238   1.93738
   A31        1.99475   0.00147   0.00000   0.00583   0.00580   2.00055
   A32        2.10565   0.00188   0.00000   0.00746   0.00743   2.11308
   A33        2.18274  -0.00334   0.00000  -0.01317  -0.01319   2.16954
   A34        1.97929  -0.00212   0.00000  -0.00956  -0.00955   1.96974
   A35        1.92087   0.00000   0.00000  -0.00093  -0.00091   1.91996
   A36        1.92166   0.00225   0.00000   0.01143   0.01145   1.93310
   A37        1.86366   0.00194   0.00000   0.01651   0.01652   1.88018
   A38        1.88483   0.00022   0.00000   0.00324   0.00327   1.88809
   A39        1.89065  -0.00238   0.00000  -0.02148  -0.02146   1.86919
   A40        2.06727  -0.00179   0.00000  -0.01212  -0.01252   2.05475
   A41        2.22789  -0.00179   0.00000  -0.00784  -0.00825   2.21964
   A42        1.98789   0.00359   0.00000   0.02078   0.02036   2.00825
   A43        1.94444   0.00331   0.00000   0.01372   0.01376   1.95820
   A44        1.93093  -0.00168   0.00000  -0.01702  -0.01710   1.91383
   A45        1.91632  -0.00337   0.00000  -0.02314  -0.02333   1.89298
   A46        1.94477  -0.00129   0.00000  -0.00732  -0.00727   1.93751
   A47        1.88212   0.00136   0.00000   0.02214   0.02225   1.90438
   A48        1.84172   0.00155   0.00000   0.01196   0.01170   1.85342
    D1        2.64798   0.00158   0.00000   0.05505   0.05486   2.70285
    D2       -0.47172   0.00063   0.00000  -0.00609  -0.00587  -0.47760
    D3        0.64495  -0.00074   0.00000   0.02458   0.02436   0.66931
    D4       -2.47476  -0.00170   0.00000  -0.03656  -0.03638  -2.51114
    D5       -1.48335   0.00090   0.00000   0.04800   0.04781  -1.43553
    D6        1.68013  -0.00005   0.00000  -0.01314  -0.01293   1.66721
    D7       -0.96548  -0.00055   0.00000  -0.01725  -0.01725  -0.98274
    D8       -3.13904  -0.00005   0.00000  -0.00521  -0.00517   3.13897
    D9        1.11834   0.00104   0.00000   0.00395   0.00377   1.12211
   D10        1.04067  -0.00077   0.00000  -0.01198  -0.01189   1.02878
   D11       -1.13288  -0.00027   0.00000   0.00006   0.00019  -1.13270
   D12        3.12449   0.00082   0.00000   0.00923   0.00913   3.13363
   D13       -3.12380  -0.00088   0.00000  -0.02093  -0.02087   3.13851
   D14        0.98582  -0.00038   0.00000  -0.00889  -0.00880   0.97703
   D15       -1.03998   0.00072   0.00000   0.00027   0.00015  -1.03983
   D16        1.05676  -0.00117   0.00000  -0.05454  -0.05482   1.00194
[...]
                 (A) (A) (A) (A) (A) (A) (A) (A) (A) (A) (A) (A)
                 (A) (A) (A) (A) (A) (A) (A) (A) (A) (A) (A) (A)
                 (A) (A) (A) (A) (A) (A) (A) (A) (A) (A) (A) (A)
                 (A) (A) (A) (A) (A) (A) (A) (A) (A) (A) (A) (A)
                 (A) (A) (A) (A) (A) (A) (A) (A) (A) (A) (A) (A)
                 (A) (A) (A) (A) (A) (A) (A) (A) (A) (A) (A) (A)
                 (A) (A) (A) (A) (A) (A) (A) (A) (A) (A) (A) (A)
                 (A) (A) (A) (A) (A) (A) (A) (A) (A) (A) (A) (A)
                 (A) (A) (A) (A) (A) (A) (A) (A) (A) (A) (A) (A)
                 (A) (A) (A) (A) (A) (A) (A) (A) (A) (A) (A) (A)
                 (A) (A) (A) (A) (A) (A) (A) (A) (A) (A) (A) (A)
                 (A) (A) (A) (A) (A) (A) (A) (A) (A) (A) (A) (A)
                 (A) (A) (A) (A) (A) (A) (A) (A) (A)
 The electronic state is 1-A.
 Alpha  occ. eigenvalues --  -11.23028 -11.22456 -11.21863 -11.21726 -11.21721
 Alpha  occ. eigenvalues --  -11.21541 -11.21497 -11.21449 -11.21393 -11.21358
 Alpha  occ. eigenvalues --   -1.10803  -1.08495  -1.01828  -0.98138  -0.93839
 Alpha  occ. eigenvalues --   -0.91936  -0.86954  -0.82861  -0.70567  -0.69489
 Alpha  occ. eigenvalues --   -0.64754  -0.61539  -0.60720  -0.58828  -0.58414
 Alpha  occ. eigenvalues --   -0.56814  -0.55405  -0.54979  -0.53298  -0.52217
 Alpha  occ. eigenvalues --   -0.51714  -0.51214  -0.50653  -0.50166  -0.47383
 Alpha  occ. eigenvalues --   -0.46917  -0.44458  -0.33328  -0.31563
 Alpha virt. eigenvalues --    0.18100   0.19932   0.22053   0.24536   0.24955
 Alpha virt. eigenvalues --    0.27424   0.28601   0.28877   0.30353   0.30694
 Alpha virt. eigenvalues --    0.31966   0.32601   0.32969   0.33726   0.34466
 Alpha virt. eigenvalues --    0.35524   0.36421   0.37370   0.38662   0.39972
 Alpha virt. eigenvalues --    0.40998   0.42095   0.42777   0.44262   0.45477
 Alpha virt. eigenvalues --    0.51938   0.54227   0.61292   0.62632   0.69521
 Alpha virt. eigenvalues --    0.71676   0.71855   0.74127   0.75627   0.76300
 Alpha virt. eigenvalues --    0.77310   0.78587   0.80192   0.80428   0.82510
 Alpha virt. eigenvalues --    0.83060   0.85963   0.89706   0.90634   0.91906
 Alpha virt. eigenvalues --    0.92727   0.94246   0.96733   0.97890   0.99038
 Alpha virt. eigenvalues --    0.99663   1.01316   1.02330   1.04636   1.06421
 Alpha virt. eigenvalues --    1.06946   1.08561   1.08610   1.11036   1.12563
 Alpha virt. eigenvalues --    1.13528   1.14242   1.14315   1.15516   1.15561
 Alpha virt. eigenvalues --    1.15995   1.16443   1.18511   1.18881   1.20423
 Alpha virt. eigenvalues --    1.21361   1.22874   1.23837   1.26678   1.27279
 Alpha virt. eigenvalues --    1.29587   1.40505   1.41229   1.45131   1.46302
 Alpha virt. eigenvalues --    1.47303   1.54539   1.56916   1.57904   1.58162
 Alpha virt. eigenvalues --    1.61580   1.62900   1.65166   1.67986   1.70099
 Alpha virt. eigenvalues --    1.73688   1.82808   1.91105   1.92024   1.96649
 Alpha virt. eigenvalues --    1.98629   2.01394   2.02264   2.04662   2.08570
 Alpha virt. eigenvalues --    2.09659   2.11023   2.11867   2.13286   2.14333
 Alpha virt. eigenvalues --    2.15615   2.17830   2.19386   2.23464   2.28302
 Alpha virt. eigenvalues --    2.29342   2.30634   2.33018   2.35331   2.35655
 Alpha virt. eigenvalues --    2.35947   2.36091   2.39306   2.40246   2.40800
 Alpha virt. eigenvalues --    2.42218   2.43338   2.43738   2.45452   2.46063
 Alpha virt. eigenvalues --    2.47468   2.49490   2.50160   2.50478   2.53353
 Alpha virt. eigenvalues --    2.56171   2.59443   2.61268   2.62977   2.65059
 Alpha virt. eigenvalues --    2.67062   2.68311   2.71449   2.72617   2.74255
 Alpha virt. eigenvalues --    2.76086   2.77474   2.80595   2.82947   2.83712
 Alpha virt. eigenvalues --    2.86556   2.90534   2.92645   2.94406   2.94575
 Alpha virt. eigenvalues --    2.97681   2.98672   3.01242   3.02716   3.05048
 Alpha virt. eigenvalues --    3.06983   3.08131   3.09712   3.12652   3.17075
 Alpha virt. eigenvalues --    3.17580   3.18813   3.20184   3.20611   3.22304
 Alpha virt. eigenvalues --    3.23445   3.25849   3.26685   3.27777   3.38376
 Alpha virt. eigenvalues --    3.40097   3.45764   3.46979   3.56086   3.58279
 Alpha virt. eigenvalues --    3.59222   3.61997   3.68641   3.74872   3.78914
 Alpha virt. eigenvalues --    3.79698   3.81279   3.82681   3.83341   3.84006
 Alpha virt. eigenvalues --    3.84104   3.86511   3.88184   3.89137   3.91421
 Alpha virt. eigenvalues --    3.97579   4.59401   4.62757   4.74521   4.82179
 Alpha virt. eigenvalues --    4.89167   4.92294   4.93230   5.07407   5.10903
 Alpha virt. eigenvalues --    5.17835
          Condensed to atoms (all electrons):
               1          2          3          4          5          6
     1  C    5.003997   0.413411   0.412745   0.339222  -0.057161  -0.000045
     2  H    0.413411   0.576310  -0.028359  -0.039654   0.003215  -0.000012
     3  H    0.412745  -0.028359   0.584867  -0.045647  -0.004621  -0.000557
     4  C    0.339222  -0.039654  -0.045647   4.951262   0.352880  -0.045807
     5  C   -0.057161   0.003215  -0.004621   0.352880   4.891657   0.400489
     6  H   -0.000045  -0.000012  -0.000557  -0.045807   0.400489   0.599593
     7  H   -0.003571  -0.000037   0.002410  -0.041600   0.397676  -0.037732
     8  H    0.003819  -0.000111   0.000114  -0.042642   0.407271  -0.027516
     9  C   -0.046576  -0.001941   0.002347   0.696859  -0.046080  -0.000883
    10  H    0.003280   0.000029  -0.000115  -0.037937  -0.006573   0.000143
    11  C   -0.007739  -0.002699   0.000152  -0.049997   0.003357  -0.000102
    12  H   -0.002166  -0.001508   0.000038  -0.000577   0.000102  -0.000002
    13  H    0.000295  -0.000067  -0.000013  -0.000357  -0.000097   0.000016
    14  H    0.000167   0.000160   0.000018  -0.000541  -0.000105  -0.000004
    15  C   -0.000102  -0.000001  -0.000045   0.000002  -0.000000  -0.000000
    16  H   -0.000003   0.000002  -0.000002   0.000000  -0.000000  -0.000000
    17  H   -0.000005   0.000000   0.000002   0.000000  -0.000000   0.000000
    18  H    0.000024  -0.000001  -0.000008  -0.000000   0.000000   0.000000
    19  C   -0.004098   0.000622   0.001256  -0.000004   0.000007   0.000021
    20  C    0.000549  -0.000016   0.000191  -0.000019  -0.000025  -0.000043
    21  H   -0.000058  -0.000011   0.000094  -0.000061   0.000096   0.000361
    22  H    0.000120  -0.000001  -0.000099  -0.000004   0.000001  -0.000001
    23  H   -0.000041   0.000000   0.000017   0.000001  -0.000000  -0.000000
    24  C   -0.062090  -0.001230   0.000057   0.006210  -0.000074  -0.000104
    25  H   -0.000091   0.001049   0.000171  -0.000105  -0.000002  -0.000000
    26  C    0.331129  -0.042384  -0.045729  -0.055684  -0.001011   0.000669
    27  H   -0.042601   0.004316  -0.002340  -0.002245  -0.000436  -0.000466
    28  H   -0.046716  -0.002896   0.004692  -0.001441   0.000280  -0.000003
               7          8          9         10         11         12
     1  C   -0.003571   0.003819  -0.046576   0.003280  -0.007739  -0.002166
     2  H   -0.000037  -0.000111  -0.001941   0.000029  -0.002699  -0.001508
     3  H    0.002410   0.000114   0.002347  -0.000115   0.000152   0.000038
     4  C   -0.041600  -0.042642   0.696859  -0.037937  -0.049997  -0.000577
     5  C    0.397676   0.407271  -0.046080  -0.006573   0.003357   0.000102
     6  H   -0.037732  -0.027516  -0.000883   0.000143  -0.000102  -0.000002
     7  H    0.591603  -0.026708  -0.000465   0.000218  -0.000104   0.000001
     8  H   -0.026708   0.568320  -0.002982   0.002347   0.000133   0.000005
     9  C   -0.000465  -0.002982   4.938271   0.404337   0.340912  -0.043875
    10  H    0.000218   0.002347   0.404337   0.559262  -0.041317   0.003330
    11  C   -0.000104   0.000133   0.340912  -0.041317   4.898015   0.409145
    12  H    0.000001   0.000005  -0.043875   0.003330   0.409145   0.577276
    13  H   -0.000004  -0.000005  -0.041711  -0.001238   0.401889  -0.029082
    14  H    0.000017  -0.000006  -0.041774  -0.001163   0.401438  -0.027817
    15  C    0.000000   0.000000  -0.000000   0.000000   0.000000  -0.000000
    16  H   -0.000000  -0.000000  -0.000000   0.000000  -0.000000   0.000000
    17  H    0.000000   0.000000  -0.000000   0.000000  -0.000000   0.000000
    18  H   -0.000000  -0.000000   0.000000  -0.000000  -0.000000  -0.000000
    19  C   -0.000001  -0.000000  -0.000003   0.000000   0.000000   0.000001
    20  C   -0.000001   0.000000  -0.000000  -0.000000  -0.000000   0.000000
    21  H   -0.000000  -0.000001  -0.000001   0.000000  -0.000000   0.000000
    22  H    0.000000  -0.000000   0.000000  -0.000000   0.000000  -0.000000
    23  H    0.000000   0.000000   0.000000   0.000000   0.000000   0.000000
    24  C    0.000003   0.000002   0.000036   0.000002  -0.000027   0.000064
    25  H    0.000000   0.000000   0.000007  -0.000000  -0.000002   0.000025
    26  C    0.000075  -0.000108  -0.004455  -0.000120   0.000509  -0.000554
    27  H    0.000058  -0.000040   0.000648   0.000001  -0.000030  -0.000004
    28  H    0.000005  -0.000004   0.001236  -0.000038   0.000051   0.000016
              13         14         15         16         17         18
     1  C    0.000295   0.000167  -0.000102  -0.000003  -0.000005   0.000024
     2  H   -0.000067   0.000160  -0.000001   0.000002   0.000000  -0.000001
     3  H   -0.000013   0.000018  -0.000045  -0.000002   0.000002  -0.000008
     4  C   -0.000357  -0.000541   0.000002   0.000000   0.000000  -0.000000
     5  C   -0.000097  -0.000105  -0.000000  -0.000000  -0.000000   0.000000
     6  H    0.000016  -0.000004  -0.000000  -0.000000   0.000000   0.000000
     7  H   -0.000004   0.000017   0.000000  -0.000000   0.000000  -0.000000
     8  H   -0.000005  -0.000006   0.000000  -0.000000   0.000000  -0.000000
     9  C   -0.041711  -0.041774  -0.000000  -0.000000  -0.000000   0.000000
    10  H   -0.001238  -0.001163   0.000000   0.000000   0.000000  -0.000000
    11  C    0.401889   0.401438   0.000000  -0.000000  -0.000000  -0.000000
    12  H   -0.029082  -0.027817  -0.000000   0.000000   0.000000  -0.000000
    13  H    0.585672  -0.035520  -0.000000  -0.000000  -0.000000   0.000000
    14  H   -0.035520   0.584890   0.000000  -0.000000   0.000000  -0.000000
    15  C   -0.000000   0.000000   4.900552   0.406165   0.398829   0.398175
    16  H   -0.000000  -0.000000   0.406165   0.565965  -0.026546  -0.026667
    17  H   -0.000000   0.000000   0.398829  -0.026546   0.593696  -0.037823
    18  H    0.000000  -0.000000   0.398175  -0.026667  -0.037823   0.594540
    19  C    0.000000  -0.000000   0.353472  -0.041665  -0.044307  -0.043823
    20  C   -0.000000   0.000000  -0.065053   0.003789  -0.001177  -0.001990
    21  H    0.000000  -0.000000   0.003758  -0.000115  -0.000032  -0.000068
    22  H    0.000000  -0.000000  -0.002670  -0.000029  -0.000486   0.002769
    23  H   -0.000000   0.000000  -0.002204  -0.000055   0.002752  -0.000448
    24  C   -0.000007   0.000002  -0.044228  -0.002577  -0.001279  -0.000470
    25  H   -0.000000  -0.000000  -0.006998   0.002368   0.000188   0.000180
    26  C    0.000149  -0.000037   0.003136   0.000144  -0.000128  -0.000071
    27  H   -0.000000  -0.000000   0.000050   0.000007   0.000006  -0.000004
    28  H   -0.000081   0.000025  -0.000091  -0.000009   0.000009  -0.000002
              19         20         21         22         23         24
     1  C   -0.004098   0.000549  -0.000058   0.000120  -0.000041  -0.062090
     2  H    0.000622  -0.000016  -0.000011  -0.000001   0.000000  -0.001230
     3  H    0.001256   0.000191   0.000094  -0.000099   0.000017   0.000057
     4  C   -0.000004  -0.000019  -0.000061  -0.000004   0.000001   0.006210
     5  C    0.000007  -0.000025   0.000096   0.000001  -0.000000  -0.000074
     6  H    0.000021  -0.000043   0.000361  -0.000001  -0.000000  -0.000104
     7  H   -0.000001  -0.000001  -0.000000   0.000000   0.000000   0.000003
     8  H   -0.000000   0.000000  -0.000001  -0.000000   0.000000   0.000002
     9  C   -0.000003  -0.000000  -0.000001   0.000000   0.000000   0.000036
    10  H    0.000000  -0.000000   0.000000  -0.000000   0.000000   0.000002
    11  C    0.000000  -0.000000  -0.000000   0.000000   0.000000  -0.000027
    12  H    0.000001   0.000000   0.000000  -0.000000   0.000000   0.000064
    13  H    0.000000  -0.000000   0.000000   0.000000  -0.000000  -0.000007
    14  H   -0.000000   0.000000  -0.000000  -0.000000   0.000000   0.000002
    15  C    0.353472  -0.065053   0.003758  -0.002670  -0.002204  -0.044228
    16  H   -0.041665   0.003789  -0.000115  -0.000029  -0.000055  -0.002577
    17  H   -0.044307  -0.001177  -0.000032  -0.000486   0.002752  -0.001279
    18  H   -0.043823  -0.001990  -0.000068   0.002769  -0.000448  -0.000470
    19  C    4.915064   0.350683  -0.037727  -0.043358  -0.043642   0.696285
    20  C    0.350683   4.904567   0.406928   0.401034   0.400306  -0.044156
    21  H   -0.037727   0.406928   0.570628  -0.028092  -0.026774  -0.003150
    22  H   -0.043358   0.401034  -0.028092   0.586876  -0.035758  -0.000024
    23  H   -0.043642   0.400306  -0.026774  -0.035758   0.585123  -0.000377
    24  C    0.696285  -0.044156  -0.003150  -0.000024  -0.000377   4.960935
    25  H   -0.038332   0.003541   0.000051  -0.000122  -0.000120   0.403960
    26  C   -0.049354  -0.007949  -0.002567   0.000348   0.000140   0.340992
    27  H    0.000417  -0.002567  -0.001997  -0.000063   0.000086  -0.044503
    28  H    0.001446   0.000178   0.000062  -0.000014   0.000024  -0.041006
              25         26         27         28
     1  C   -0.000091   0.331129  -0.042601  -0.046716
     2  H    0.001049  -0.042384   0.004316  -0.002896
     3  H    0.000171  -0.045729  -0.002340   0.004692
     4  C   -0.000105  -0.055684  -0.002245  -0.001441
     5  C   -0.000002  -0.001011  -0.000436   0.000280
     6  H   -0.000000   0.000669  -0.000466  -0.000003
     7  H    0.000000   0.000075   0.000058   0.000005
     8  H    0.000000  -0.000108  -0.000040  -0.000004
     9  C    0.000007  -0.004455   0.000648   0.001236
    10  H   -0.000000  -0.000120   0.000001  -0.000038
    11  C   -0.000002   0.000509  -0.000030   0.000051
    12  H    0.000025  -0.000554  -0.000004   0.000016
    13  H   -0.000000   0.000149  -0.000000  -0.000081
    14  H   -0.000000  -0.000037  -0.000000   0.000025
    15  C   -0.006998   0.003136   0.000050  -0.000091
    16  H    0.002368   0.000144   0.000007  -0.000009
    17  H    0.000188  -0.000128   0.000006   0.000009
    18  H    0.000180  -0.000071  -0.000004  -0.000002
    19  C   -0.038332  -0.049354   0.000417   0.001446
    20  C    0.003541  -0.007949  -0.002567   0.000178
    21  H    0.000051  -0.002567  -0.001997   0.000062
    22  H   -0.000122   0.000348  -0.000063  -0.000014
    23  H   -0.000120   0.000140   0.000086   0.000024
    24  C    0.403960   0.340992  -0.044503  -0.041006
    25  H    0.558056  -0.040061   0.003267  -0.003353
    26  C   -0.040061   4.977839   0.416251   0.413228
    27  H    0.003267   0.416251   0.582598  -0.028540
    28  H   -0.003353   0.413228  -0.028540   0.579538
 Mulliken charges:
               1
     1  C   -0.235696
     2  H    0.121814
     3  H    0.118365
     4  C    0.017883
     5  C   -0.340845
     6  H    0.111985
     7  H    0.118156
     8  H    0.118112
     9  C   -0.153908
    10  H    0.115552
    11  C   -0.353585
    12  H    0.115581
    13  H    0.120162
    14  H    0.120250
    15  C   -0.342746
    16  H    0.119226
    17  H    0.116299
    18  H    0.115688
    19  C    0.027041
    20  C   -0.348771
    21  H    0.118676
    22  H    0.119572
    23  H    0.120971
    24  C   -0.163245
    25  H    0.116321
    26  C   -0.234395
    27  H    0.118132
    28  H    0.123405
 Sum of Mulliken charges =  -0.00000
 Mulliken charges with hydrogens summed into heavy atoms:
               1
     1  C    0.004483
     4  C    0.017883
     5  C    0.007409
     9  C   -0.038356
    11  C    0.002408
    15  C    0.008468
    19  C    0.027041
    20  C    0.010448
    24  C   -0.046924
    26  C    0.007142
 Electronic spatial extent (au):  <R**2>=           2498.6154
 Charge=             -0.0000 electrons
 Dipole moment (field-independent basis, Debye):
    X=              0.3626    Y=              0.1699    Z=              0.0498  Tot=              0.4035
 Quadrupole moment (field-independent basis, Debye-Ang):
   XX=            -63.7582   YY=            -63.7112   ZZ=            -67.3994
   XY=              1.0617   XZ=              1.2177   YZ=             -0.3674
 Traceless Quadrupole moment (field-independent basis, Debye-Ang):
   XX=              1.1981   YY=              1.2451   ZZ=             -2.4431
   XY=              1.0617   XZ=              1.2177   YZ=             -0.3674
 Octapole moment (field-independent basis, Debye-Ang**2):
  XXX=              2.8324  YYY=             -2.8562  ZZZ=              0.8775  XYY=             -0.7382
  XXY=              1.7309  XXZ=             -2.8066  XZZ=              1.5462  YZZ=              1.4376
  YYZ=              0.7861  XYZ=             -0.4940
 Hexadecapole moment (field-independent basis, Debye-Ang**3):
 XXXX=          -2633.5322 YYYY=           -638.9547 ZZZZ=           -166.0439 XXXY=             10.5035
 XXXZ=             13.5605 YYYX=             -7.0822 YYYZ=             -1.6738 ZZZX=              4.0400
 ZZZY=              2.3775 XXYY=           -550.6716 XXZZ=           -483.2673 YYZZ=           -131.1157
 XXYZ=             -4.5757 YYXZ=              2.5312 ZZXY=              7.7340
 N-N= 5.156965485911D+02 E-N=-1.936106463320D+03  KE= 3.887456769909D+02
 No NMR shielding tensors so no spin-rotation constants.
 Leave Link  601 at Fri Sep 17 17:45:55 2021, MaxMem=   524288000 cpu:               0.3 elap:               1.1
 (Enter /opt/gaussian/g16_legacy/l9999.exe)
 1\1\GINC-TRUENO91\FOpt\RMP2-FC\6-31G(d,p)\C10H18\JRAMOS\17-Sep-2021\0\
 \#p opt mp2/6-31g(d,p)\\Conformer number 556. Energy MM = 23.287 kcal/
 mol\\0,1\C,-0.7474918293,-0.0258322355,-0.6830684764\H,-0.9201795291,0
 .8770981075,-1.2712819077\H,-0.1412458481,-0.6872043895,-1.3082635423\
 C,-2.04437273,-0.7126227268,-0.3363453418\C,-1.9572142474,-2.205692030
 5,-0.1701049035\H,-1.1979741889,-2.4746295478,0.5678231206\H,-1.670702
 3378,-2.6846071626,-1.1089406443\H,-2.9072499992,-2.628777945,0.153831
 7153\C,-3.2043721105,-0.0608704963,-0.1328920132\H,-4.0734379945,-0.65
 3647299,0.1390346372\C,-3.4412339614,1.415082919,-0.2376760252\H,-2.53
 88911517,1.9622763771,-0.5002314341\H,-3.8070482155,1.8143268524,0.710
 066503\H,-4.2009645007,1.6360139554,-0.989764337\C,3.7965831491,1.2084
 351632,-0.2550476455\H,3.5464067654,2.2489576134,-0.456205751\H,4.5533
 903934,1.1843224842,0.5323222517\H,4.2585542992,0.7875054273,-1.150919
 6983\C,2.5829522991,0.4157114968,0.1453582931\C,2.8502520964,-1.033190
 0757,0.4455040065\H,1.9495691197,-1.589301528,0.6925842344\H,3.3169532
 929,-1.5154192667,-0.4160424139\H,3.5503315937,-1.1289629376,1.2784495
 55\C,1.3714035379,0.9980590298,0.2208942184\H,1.3061532096,2.050889378
 1,-0.0425284855\C,0.0696829596,0.3404924309,0.5708391873\H,0.229408744
 3,-0.5560300169,1.1712691747\H,-0.529162816,1.0177164227,1.1853357226\
 \Version=EM64L-G16RevA.03\State=1-A\HF=-389.1568792\MP2=-390.573553\RM
 SD=2.372e-09\RMSF=3.828e-06\Dipole=0.1091328,-0.0349331,-0.0042781\PG=
 C01 [X(C10H18)]\\@


 WERE I TO AWAIT PERFECTION, MY BOOK WOULD NEVER BE FINISHED.
                                    -- HISTORY OF CHINESE WRITING

                                       TAI T'UNG, 13TH CENTURY
 Job cpu time:       0 days  1 hours 38 minutes 33.5 seconds.
 Elapsed time:       0 days  1 hours 38 minutes 42.0 seconds.
 File lengths (MBytes):  RWF=     32 Int=      0 D2E=      0 Chk=      7 Scr=      1
 Normal termination of Gaussian 16 at Fri Sep 17 17:45:55 2021.
