 Entering Gaussian System, Link 0=/opt/gaussian/g16_legacy/g16
 Input=01-IsoP_2667_gaussian.com
 Output=01-IsoP_2667_gaussian.log
 Initial command:
 /opt/gaussian/g16_legacy/l1.exe "/scratch-local/jramos/2661365/Gau-15585.inp" -scrdir="/scratch-local/jramos/2661365/"
 Entering Link 1 = /opt/gaussian/g16_legacy/l1.exe PID=     15586.
  
 Copyright (c) 1988,1990,1992,1993,1995,1998,2003,2009,2016,
            Gaussian, Inc.  All Rights Reserved.
  
 This is part of the Gaussian(R) 16 program.  It is based on
 the Gaussian(R) 09 system (copyright 2009, Gaussian, Inc.),
 the Gaussian(R) 03 system (copyright 2003, Gaussian, Inc.),
 the Gaussian(R) 98 system (copyright 1998, Gaussian, Inc.),
 the Gaussian(R) 94 system (copyright 1995, Gaussian, Inc.),
 the Gaussian 92(TM) system (copyright 1992, Gaussian, Inc.),
 the Gaussian 90(TM) system (copyright 1990, Gaussian, Inc.),
 the Gaussian 88(TM) system (copyright 1988, Gaussian, Inc.),
 the Gaussian 86(TM) system (copyright 1986, Carnegie Mellon
 University), and the Gaussian 82(TM) system (copyright 1983,
 Carnegie Mellon University). Gaussian is a federally registered
 trademark of Gaussian, Inc.
  
 This software contains proprietary and confidential information,
 including trade secrets, belonging to Gaussian, Inc.
  
 This software is provided under written license and may be
 used, copied, transmitted, or stored only in accord with that
 written license.
  
 The following legend is applicable only to US Government
 contracts under FAR:
  
                    RESTRICTED RIGHTS LEGEND
  
 Use, reproduction and disclosure by the US Government is
 subject to restrictions as set forth in subparagraphs (a)
 and (c) of the Commercial Computer Software - Restricted
 Rights clause in FAR 52.227-19.
  
 Gaussian, Inc.
 340 Quinnipiac St., Bldg. 40, Wallingford CT 06492
  
  
 ---------------------------------------------------------------
 Warning -- This program may not be used in any manner that
 competes with the business of Gaussian, Inc. or will provide
 assistance to any competitor of Gaussian, Inc.  The licensee
 of this program is prohibited from giving any competitor of
 Gaussian, Inc. access to this program.  By using this program,
 the user acknowledges that Gaussian, Inc. is engaged in the
 business of creating and licensing software in the field of
 computational chemistry and represents and warrants to the
 licensee that it is not a competitor of Gaussian, Inc. and that
 it will not use this program in any manner prohibited above.
 ---------------------------------------------------------------
  

 Cite this work as:
 Gaussian 16, Revision A.03,
 M. J. Frisch, G. W. Trucks, H. B. Schlegel, G. E. Scuseria, 
 M. A. Robb, J. R. Cheeseman, G. Scalmani, V. Barone, 
 G. A. Petersson, H. Nakatsuji, X. Li, M. Caricato, A. V. Marenich, 
 J. Bloino, B. G. Janesko, R. Gomperts, B. Mennucci, H. P. Hratchian, 
 J. V. Ortiz, A. F. Izmaylov, J. L. Sonnenberg, D. Williams-Young, 
 F. Ding, F. Lipparini, F. Egidi, J. Goings, B. Peng, A. Petrone, 
 T. Henderson, D. Ranasinghe, V. G. Zakrzewski, J. Gao, N. Rega, 
 G. Zheng, W. Liang, M. Hada, M. Ehara, K. Toyota, R. Fukuda, 
 J. Hasegawa, M. Ishida, T. Nakajima, Y. Honda, O. Kitao, H. Nakai, 
 T. Vreven, K. Throssell, J. A. Montgomery, Jr., J. E. Peralta, 
 F. Ogliaro, M. J. Bearpark, J. J. Heyd, E. N. Brothers, K. N. Kudin, 
 V. N. Staroverov, T. A. Keith, R. Kobayashi, J. Normand, 
 K. Raghavachari, A. P. Rendell, J. C. Burant, S. S. Iyengar, 
 J. Tomasi, M. Cossi, J. M. Millam, M. Klene, C. Adamo, R. Cammi, 
 J. W. Ochterski, R. L. Martin, K. Morokuma, O. Farkas, 
 J. B. Foresman, and D. J. Fox, Gaussian, Inc., Wallingford CT, 2016.
 
 ******************************************
 Gaussian 16:  EM64L-G16RevA.03 25-Dec-2016
                17-Sep-2021 
 ******************************************
 %chk=01-IsoP_2667_gaussian.chk
 %nproc=1
 Will use up to    1 processors via shared memory.
 %mem=4000Mb
 ---------------------
 #p opt mp2/6-31g(d,p)
 ---------------------
 1/18=20,19=15,38=1/1,3;
 2/9=110,12=2,17=6,18=5,40=1/2;
 3/5=1,6=6,7=101,11=9,25=1,30=1,71=1/1,2,3;
 4//1;
 5/5=2,38=5/2;
 8/6=4,10=2/1;
 9/15=2,16=-3/6;
 10/5=1/2;
 6/7=2,8=2,9=2,10=2/1;
 7/12=2/1,2,3,16;
 1/18=20,19=15/3(2);
 2/9=110/2;
 99//99;
 2/9=110/2;
 3/5=1,6=6,7=101,11=9,25=1,30=1,71=1/1,2,3;
 4/5=5,16=3,69=1/1;
 5/5=2,38=5/2;
 8/6=4,10=2/1;
 9/15=2,16=-3/6;
 10/5=1/2;
 7/12=2/1,2,3,16;
 1/18=20,19=15/3(-8);
 2/9=110/2;
 6/7=2,8=2,9=2,10=2/1;
 99//99;
 Leave Link    1 at Fri Sep 17 14:33:52 2021, MaxMem=   524288000 cpu:               0.0 elap:               0.1
 (Enter /opt/gaussian/g16_legacy/l101.exe)
 --------------------------------------------------
 Conformer number 2667. Energy MM = 23.242 kcal/mol
 --------------------------------------------------
 Symbolic Z-matrix:
 Charge =  0 Multiplicity = 1
 C                    -0.592     0.0749   -1.0452 
 H                    -0.2386   -0.958    -0.9409 
 H                    -0.2931    0.3736   -2.059 
 C                    -2.1018    0.1346   -0.938 
 C                    -2.7513    1.2661   -1.6927 
 H                    -2.3911    2.2305   -1.3212 
 H                    -3.8418    1.2599   -1.5919 
 H                    -2.5175    1.1941   -2.7599 
 C                    -2.8515   -0.75     -0.251 
 H                    -3.9346   -0.6304   -0.2559 
 C                    -2.3728   -1.9075    0.5673 
 H                    -2.6873   -2.8466    0.1021 
 H                    -2.818    -1.8563    1.5662 
 H                    -1.2885   -1.9315    0.6958 
 C                     2.0744   -0.6366    1.8101 
 H                     2.5233   -1.6298    1.7008 
 H                     2.4345   -0.1971    2.7459 
 H                     0.9962   -0.7862    1.901 
 C                     2.4613    0.235     0.6472 
 C                     3.9445    0.3073    0.3936 
 H                     4.4599    0.7042    1.2744 
 H                     4.1906    0.9546   -0.4548 
 H                     4.3418   -0.6898    0.1771 
 C                     1.5964    0.9046   -0.1396 
 H                     1.9949    1.4915   -0.9673 
 C                     0.0978    0.9694   -0.0103 
 H                    -0.2302    0.7053    1.0004 
 H                    -0.2055    2.0142   -0.1541 
 
 ITRead=  0  0  0  0  0  0  0  0  0  0  0  0  0  0  0  0  0  0  0  0
 ITRead=  0  0  0  0  0  0  0  0
 MicOpt= -1 -1 -1 -1 -1 -1 -1 -1 -1 -1 -1 -1 -1 -1 -1 -1 -1 -1 -1 -1
 MicOpt= -1 -1 -1 -1 -1 -1 -1 -1
 NAtoms=     28 NQM=       28 NQMF=       0 NMMI=      0 NMMIF=      0
                NMic=       0 NMicF=      0.
                    Isotopes and Nuclear Properties:
 (Nuclear quadrupole moments (NQMom) in fm**2, nuclear magnetic moments (NMagM)
  in nuclear magnetons)

  Atom         1           2           3           4           5           6           7           8           9          10
 IAtWgt=          12           1           1          12          12           1           1           1          12           1
 AtmWgt=  12.0000000   1.0078250   1.0078250  12.0000000  12.0000000   1.0078250   1.0078250   1.0078250  12.0000000   1.0078250
 NucSpn=           0           1           1           0           0           1           1           1           0           1
 AtZEff=  -0.0000000  -0.0000000  -0.0000000  -0.0000000  -0.0000000  -0.0000000  -0.0000000  -0.0000000  -0.0000000  -0.0000000
 NQMom=    0.0000000   0.0000000   0.0000000   0.0000000   0.0000000   0.0000000   0.0000000   0.0000000   0.0000000   0.0000000
 NMagM=    0.0000000   2.7928460   2.7928460   0.0000000   0.0000000   2.7928460   2.7928460   2.7928460   0.0000000   2.7928460
 AtZNuc=   6.0000000   1.0000000   1.0000000   6.0000000   6.0000000   1.0000000   1.0000000   1.0000000   6.0000000   1.0000000

  Atom        11          12          13          14          15          16          17          18          19          20
 IAtWgt=          12           1           1           1          12           1           1           1          12          12
 AtmWgt=  12.0000000   1.0078250   1.0078250   1.0078250  12.0000000   1.0078250   1.0078250   1.0078250  12.0000000  12.0000000
 NucSpn=           0           1           1           1           0           1           1           1           0           0
 AtZEff=  -0.0000000  -0.0000000  -0.0000000  -0.0000000  -0.0000000  -0.0000000  -0.0000000  -0.0000000  -0.0000000  -0.0000000
 NQMom=    0.0000000   0.0000000   0.0000000   0.0000000   0.0000000   0.0000000   0.0000000   0.0000000   0.0000000   0.0000000
 NMagM=    0.0000000   2.7928460   2.7928460   2.7928460   0.0000000   2.7928460   2.7928460   2.7928460   0.0000000   0.0000000
 AtZNuc=   6.0000000   1.0000000   1.0000000   1.0000000   6.0000000   1.0000000   1.0000000   1.0000000   6.0000000   6.0000000

  Atom        21          22          23          24          25          26          27          28
 IAtWgt=           1           1           1          12           1          12           1           1
 AtmWgt=   1.0078250   1.0078250   1.0078250  12.0000000   1.0078250  12.0000000   1.0078250   1.0078250
 NucSpn=           1           1           1           0           1           0           1           1
 AtZEff=  -0.0000000  -0.0000000  -0.0000000  -0.0000000  -0.0000000  -0.0000000  -0.0000000  -0.0000000
 NQMom=    0.0000000   0.0000000   0.0000000   0.0000000   0.0000000   0.0000000   0.0000000   0.0000000
 NMagM=    2.7928460   2.7928460   2.7928460   0.0000000   2.7928460   0.0000000   2.7928460   2.7928460
 AtZNuc=   1.0000000   1.0000000   1.0000000   6.0000000   1.0000000   6.0000000   1.0000000   1.0000000
 Leave Link  101 at Fri Sep 17 14:33:52 2021, MaxMem=   524288000 cpu:               0.1 elap:               0.2
 (Enter /opt/gaussian/g16_legacy/l103.exe)

 GradGradGradGradGradGradGradGradGradGradGradGradGradGradGradGradGradGrad
 Berny optimization.
 Initialization pass.
                           ----------------------------
                           !    Initial Parameters    !
                           ! (Angstroms and Degrees)  !
 --------------------------                            --------------------------
 ! Name  Definition              Value          Derivative Info.                !
 --------------------------------------------------------------------------------
 ! R1    R(1,2)                  1.0967         estimate D2E/DX2                !
 ! R2    R(1,3)                  1.0983         estimate D2E/DX2                !
 ! R3    R(1,4)                  1.5148         estimate D2E/DX2                !
 ! R4    R(1,26)                 1.532          estimate D2E/DX2                !
 ! R5    R(4,5)                  1.5072         estimate D2E/DX2                !
 ! R6    R(4,9)                  1.3478         estimate D2E/DX2                !
 ! R7    R(5,6)                  1.0945         estimate D2E/DX2                !
 ! R8    R(5,7)                  1.0952         estimate D2E/DX2                !
 ! R9    R(5,8)                  1.0949         estimate D2E/DX2                !
 ! R10   R(9,10)                 1.0897         estimate D2E/DX2                !
 ! R11   R(9,11)                 1.4962         estimate D2E/DX2                !
 ! R12   R(11,12)                1.0942         estimate D2E/DX2                !
 ! R13   R(11,13)                1.0948         estimate D2E/DX2                !
 ! R14   R(11,14)                1.0922         estimate D2E/DX2                !
 ! R15   R(15,16)                1.0954         estimate D2E/DX2                !
 ! R16   R(15,17)                1.0948         estimate D2E/DX2                !
 ! R17   R(15,18)                1.0923         estimate D2E/DX2                !
 ! R18   R(15,19)                1.5039         estimate D2E/DX2                !
 ! R19   R(19,20)                1.5065         estimate D2E/DX2                !
 ! R20   R(19,24)                1.3474         estimate D2E/DX2                !
 ! R21   R(20,21)                1.095          estimate D2E/DX2                !
 ! R22   R(20,22)                1.0951         estimate D2E/DX2                !
 ! R23   R(20,23)                1.095          estimate D2E/DX2                !
 ! R24   R(24,25)                1.0901         estimate D2E/DX2                !
 ! R25   R(24,26)                1.5056         estimate D2E/DX2                !
 ! R26   R(26,27)                1.0949         estimate D2E/DX2                !
 ! R27   R(26,28)                1.0974         estimate D2E/DX2                !
 ! A1    A(2,1,3)              104.8468         estimate D2E/DX2                !
 ! A2    A(2,1,4)              110.5842         estimate D2E/DX2                !
 ! A3    A(2,1,26)             109.9129         estimate D2E/DX2                !
 ! A4    A(3,1,4)              109.0169         estimate D2E/DX2                !
 ! A5    A(3,1,26)             110.0115         estimate D2E/DX2                !
 ! A6    A(4,1,26)             112.2079         estimate D2E/DX2                !
 ! A7    A(1,4,5)              115.0659         estimate D2E/DX2                !
 ! A8    A(1,4,9)              124.376          estimate D2E/DX2                !
 ! A9    A(5,4,9)              120.5475         estimate D2E/DX2                !
 ! A10   A(4,5,6)              110.4704         estimate D2E/DX2                !
 ! A11   A(4,5,7)              112.2564         estimate D2E/DX2                !
 ! A12   A(4,5,8)              110.2842         estimate D2E/DX2                !
 ! A13   A(6,5,7)              107.5452         estimate D2E/DX2                !
 ! A14   A(6,5,8)              108.5738         estimate D2E/DX2                !
 ! A15   A(7,5,8)              107.576          estimate D2E/DX2                !
 ! A16   A(4,9,10)             118.5907         estimate D2E/DX2                !
 ! A17   A(4,9,11)             127.4864         estimate D2E/DX2                !
 ! A18   A(10,9,11)            113.915          estimate D2E/DX2                !
 ! A19   A(9,11,12)            109.846          estimate D2E/DX2                !
 ! A20   A(9,11,13)            109.4342         estimate D2E/DX2                !
 ! A21   A(9,11,14)            113.5155         estimate D2E/DX2                !
 ! A22   A(12,11,13)           108.1295         estimate D2E/DX2                !
 ! A23   A(12,11,14)           108.453          estimate D2E/DX2                !
 ! A24   A(13,11,14)           107.3014         estimate D2E/DX2                !
 ! A25   A(16,15,17)           108.33           estimate D2E/DX2                !
 ! A26   A(16,15,18)           106.7761         estimate D2E/DX2                !
 ! A27   A(16,15,19)           110.0538         estimate D2E/DX2                !
 ! A28   A(17,15,18)           107.9701         estimate D2E/DX2                !
 ! A29   A(17,15,19)           110.1012         estimate D2E/DX2                !
 ! A30   A(18,15,19)           113.4321         estimate D2E/DX2                !
 ! A31   A(15,19,20)           114.2852         estimate D2E/DX2                !
 ! A32   A(15,19,24)           125.0587         estimate D2E/DX2                !
 ! A33   A(20,19,24)           120.6533         estimate D2E/DX2                !
 ! A34   A(19,20,21)           110.2068         estimate D2E/DX2                !
 ! A35   A(19,20,22)           112.3355         estimate D2E/DX2                !
 ! A36   A(19,20,23)           110.2932         estimate D2E/DX2                !
 ! A37   A(21,20,22)           107.6465         estimate D2E/DX2                !
 ! A38   A(21,20,23)           108.5625         estimate D2E/DX2                !
 ! A39   A(22,20,23)           107.6695         estimate D2E/DX2                !
 ! A40   A(19,24,25)           118.4425         estimate D2E/DX2                !
 ! A41   A(19,24,26)           127.6023         estimate D2E/DX2                !
 ! A42   A(25,24,26)           113.9478         estimate D2E/DX2                !
 ! A43   A(1,26,24)            111.4099         estimate D2E/DX2                !
 ! A44   A(1,26,27)            110.3558         estimate D2E/DX2                !
 ! A45   A(1,26,28)            110.0558         estimate D2E/DX2                !
 ! A46   A(24,26,27)           111.5353         estimate D2E/DX2                !
 ! A47   A(24,26,28)           107.7478         estimate D2E/DX2                !
 ! A48   A(27,26,28)           105.5339         estimate D2E/DX2                !
 ! D1    D(2,1,4,5)           -151.413          estimate D2E/DX2                !
 ! D2    D(2,1,4,9)             27.4097         estimate D2E/DX2                !
 ! D3    D(3,1,4,5)            -36.6447         estimate D2E/DX2                !
 ! D4    D(3,1,4,9)            142.178          estimate D2E/DX2                !
 ! D5    D(26,1,4,5)            85.4739         estimate D2E/DX2                !
 ! D6    D(26,1,4,9)           -95.7035         estimate D2E/DX2                !
 ! D7    D(2,1,26,24)           56.9436         estimate D2E/DX2                !
 ! D8    D(2,1,26,27)          -67.5296         estimate D2E/DX2                !
 ! D9    D(2,1,26,28)          176.3961         estimate D2E/DX2                !
 ! D10   D(3,1,26,24)          -58.0155         estimate D2E/DX2                !
 ! D11   D(3,1,26,27)          177.5113         estimate D2E/DX2                !
 ! D12   D(3,1,26,28)           61.437          estimate D2E/DX2                !
 ! D13   D(4,1,26,24)         -179.5663         estimate D2E/DX2                !
 ! D14   D(4,1,26,27)           55.9605         estimate D2E/DX2                !
 ! D15   D(4,1,26,28)          -60.1138         estimate D2E/DX2                !
 ! D16   D(1,4,5,6)            -60.5337         estimate D2E/DX2                !
 ! D17   D(1,4,5,7)            179.4366         estimate D2E/DX2                !
 ! D18   D(1,4,5,8)             59.4957         estimate D2E/DX2                !
 ! D19   D(9,4,5,6)            120.5947         estimate D2E/DX2                !
 ! D20   D(9,4,5,7)              0.5649         estimate D2E/DX2                !
 ! D21   D(9,4,5,8)           -119.376          estimate D2E/DX2                !
 ! D22   D(1,4,9,10)          -178.5978         estimate D2E/DX2                !
 ! D23   D(1,4,9,11)             2.4919         estimate D2E/DX2                !
 ! D24   D(5,4,9,10)             0.1639         estimate D2E/DX2                !
 ! D25   D(5,4,9,11)          -178.7465         estimate D2E/DX2                !
 ! D26   D(4,9,11,12)         -113.6891         estimate D2E/DX2                !
 ! D27   D(4,9,11,13)          127.7465         estimate D2E/DX2                !
 ! D28   D(4,9,11,14)            7.9147         estimate D2E/DX2                !
 ! D29   D(10,9,11,12)          67.3575         estimate D2E/DX2                !
 ! D30   D(10,9,11,13)         -51.2069         estimate D2E/DX2                !
 ! D31   D(10,9,11,14)        -171.0386         estimate D2E/DX2                !
 ! D32   D(16,15,19,20)        -52.7915         estimate D2E/DX2                !
 ! D33   D(16,15,19,24)        126.5959         estimate D2E/DX2                !
 ! D34   D(17,15,19,20)         66.5554         estimate D2E/DX2                !
 ! D35   D(17,15,19,24)       -114.0572         estimate D2E/DX2                !
 ! D36   D(18,15,19,20)       -172.3351         estimate D2E/DX2                !
 ! D37   D(18,15,19,24)          7.0523         estimate D2E/DX2                !
 ! D38   D(15,19,20,21)        -59.5974         estimate D2E/DX2                !
 ! D39   D(15,19,20,22)       -179.6269         estimate D2E/DX2                !
 ! D40   D(15,19,20,23)         60.255          estimate D2E/DX2                !
 ! D41   D(24,19,20,21)        120.9855         estimate D2E/DX2                !
 ! D42   D(24,19,20,22)          0.9561         estimate D2E/DX2                !
 ! D43   D(24,19,20,23)       -119.1621         estimate D2E/DX2                !
 ! D44   D(15,19,24,25)       -178.832          estimate D2E/DX2                !
 ! D45   D(15,19,24,26)          2.2202         estimate D2E/DX2                !
 ! D46   D(20,19,24,25)          0.5189         estimate D2E/DX2                !
 ! D47   D(20,19,24,26)       -178.429          estimate D2E/DX2                !
 ! D48   D(19,24,26,1)        -103.3728         estimate D2E/DX2                !
 ! D49   D(19,24,26,27)         20.4346         estimate D2E/DX2                !
 ! D50   D(19,24,26,28)        135.8131         estimate D2E/DX2                !
 ! D51   D(25,24,26,1)          77.6396         estimate D2E/DX2                !
 ! D52   D(25,24,26,27)       -158.5531         estimate D2E/DX2                !
 ! D53   D(25,24,26,28)        -43.1746         estimate D2E/DX2                !
 --------------------------------------------------------------------------------
 Trust Radius=3.00D-01 FncErr=1.00D-07 GrdErr=1.00D-07 EigMax=2.50D+02 EigMin=1.00D-04
 Number of steps in this run=    138 maximum allowed number of steps=    168.
 GradGradGradGradGradGradGradGradGradGradGradGradGradGradGradGradGradGrad

 Leave Link  103 at Fri Sep 17 14:33:53 2021, MaxMem=   524288000 cpu:               0.0 elap:               0.2
 (Enter /opt/gaussian/g16_legacy/l202.exe)
                          Input orientation:                          
 ---------------------------------------------------------------------
 Center     Atomic      Atomic             Coordinates (Angstroms)
 Number     Number       Type             X           Y           Z
 ---------------------------------------------------------------------
      1          6           0       -0.592000    0.074900   -1.045200
      2          1           0       -0.238600   -0.958000   -0.940900
      3          1           0       -0.293100    0.373600   -2.059000
      4          6           0       -2.101800    0.134600   -0.938000
      5          6           0       -2.751300    1.266100   -1.692700
      6          1           0       -2.391100    2.230500   -1.321200
      7          1           0       -3.841800    1.259900   -1.591900
      8          1           0       -2.517500    1.194100   -2.759900
      9          6           0       -2.851500   -0.750000   -0.251000
     10          1           0       -3.934600   -0.630400   -0.255900
     11          6           0       -2.372800   -1.907500    0.567300
     12          1           0       -2.687300   -2.846600    0.102100
     13          1           0       -2.818000   -1.856300    1.566200
     14          1           0       -1.288500   -1.931500    0.695800
     15          6           0        2.074400   -0.636600    1.810100
     16          1           0        2.523300   -1.629800    1.700800
     17          1           0        2.434500   -0.197100    2.745900
     18          1           0        0.996200   -0.786200    1.901000
     19          6           0        2.461300    0.235000    0.647200
     20          6           0        3.944500    0.307300    0.393600
     21          1           0        4.459900    0.704200    1.274400
     22          1           0        4.190600    0.954600   -0.454800
     23          1           0        4.341800   -0.689800    0.177100
     24          6           0        1.596400    0.904600   -0.139600
     25          1           0        1.994900    1.491500   -0.967300
     26          6           0        0.097800    0.969400   -0.010300
     27          1           0       -0.230200    0.705300    1.000400
     28          1           0       -0.205500    2.014200   -0.154100
 ---------------------------------------------------------------------
                    Distance matrix (angstroms):
                    1          2          3          4          5
     1  C    0.000000
     2  H    1.096655   0.000000
     3  H    1.098341   1.739620   0.000000
     4  C    1.514778   2.159930   2.141298   0.000000
     5  C    2.549665   3.438820   2.640735   1.507221   0.000000
     6  H    2.821267   3.865801   2.897245   2.150194   1.094451
     7  H    3.502043   4.280880   3.687409   2.172898   1.095166
     8  H    2.810757   3.624042   2.472334   2.148177   1.094880
     9  C    2.533092   2.710438   3.328175   1.347789   2.480564
    10  H    3.506197   3.773190   4.185655   2.099915   2.657312
    11  C    3.114693   2.780472   4.052903   2.551380   3.914409
    12  H    3.773823   3.263555   4.557657   3.211257   4.487728
    13  H    3.937514   3.707533   4.948702   3.278360   4.513786
    14  H    2.746240   2.174576   3.727362   2.756724   4.250807
    15  C    3.970977   3.608499   4.647095   5.058404   6.259174
    16  H    4.489055   3.880462   5.107036   5.609628   6.908219
    17  H    4.858614   4.617026   5.554508   5.853133   6.981020
    18  H    3.456004   3.103328   4.323081   4.301790   5.583043
    19  C    3.494637   3.351831   3.863864   4.831648   5.805988
    20  C    4.764870   4.569486   4.896621   6.193604   7.078537
    21  H    5.594484   5.454023   5.814797   6.948026   7.817981
    22  H    4.898541   4.848932   4.797352   6.363975   7.058286
    23  H    5.140152   4.722491   5.254832   6.591135   7.591690
    24  C    2.509504   2.734700   2.745226   3.860962   4.630907
    25  H    2.950403   3.315007   2.770641   4.315668   4.806602
    26  C    1.531983   2.166576   2.169090   2.528984   3.322028
    27  H    2.170894   2.556420   3.077972   2.754266   3.731384
    28  H    2.168946   3.074756   2.515529   2.782687   3.067253
                    6          7          8          9         10
     6  H    0.000000
     7  H    1.766316   0.000000
     8  H    1.777628   1.767010   0.000000
     9  C    3.200106   2.611208   3.191498   0.000000
    10  H    3.420819   2.316623   3.406903   1.089694   0.000000
    11  C    4.548605   4.105183   4.550947   1.496187   2.178959
    12  H    5.281142   4.589755   4.954506   2.132457   2.568163
    13  H    5.022077   4.553292   5.301922   2.127731   2.463671
    14  H    4.754604   4.683796   4.818888   2.176084   3.098458
    15  C    6.161655   7.083201   6.732155   5.340925   6.354249
    16  H    6.941594   7.727013   7.299447   5.785503   6.821433
    17  H    6.761728   7.767323   7.534691   6.101549   7.054359
    18  H    5.563888   6.308179   6.163738   4.408765   5.384169
    19  C    5.603785   6.767057   6.108736   5.477484   6.517058
    20  C    6.839522   8.091732   7.244889   6.907895   7.961240
    21  H    7.483511   8.800153   8.074632   7.609081   8.636585
    22  H    6.759981   8.118230   7.097144   7.248336   8.280740
    23  H    7.490327   8.596627   7.695781   7.206279   8.287932
    24  C    4.365128   5.639985   4.886098   4.746991   5.741229
    25  H    4.461879   5.874592   4.864526   5.387486   6.337785
    26  C    3.082767   4.255149   3.801392   3.422374   4.345104
    27  H    3.519311   4.480095   4.428377   3.248863   4.133396
    28  H    2.487118   3.982325   3.578841   3.827729   4.572796
                   11         12         13         14         15
    11  C    0.000000
    12  H    1.094180   0.000000
    13  H    1.094818   1.772390   0.000000
    14  H    1.092151   1.773846   1.761426   0.000000
    15  C    4.789293   5.520430   5.048042   3.771939   0.000000
    16  H    5.033263   5.584514   5.347794   3.953589   1.095401
    17  H    5.548144   6.343687   5.633240   4.590401   1.094785
    18  H    3.792918   4.587969   3.975591   2.825610   1.092318
    19  C    5.288215   6.025071   5.752313   4.330945   1.503900
    20  C    6.696551   7.349342   7.196358   5.699810   2.528773
    21  H    7.348929   8.066284   7.720695   6.350259   2.788428
    22  H    7.232878   7.878120   7.817037   6.298729   3.484249
    23  H    6.835269   7.352935   7.386004   5.788881   2.794749
    24  C    4.915502   5.699123   5.478983   4.130860   2.530832
    25  H    5.743257   6.471918   6.386736   5.026286   3.499869
    26  C    3.835888   4.725598   4.355666   3.291751   3.130502
    27  H    3.406616   4.411380   3.684920   2.857533   2.787022
    28  H    4.538429   5.463730   4.976481   4.178967   4.010332
                   16         17         18         19         20
    16  H    0.000000
    17  H    1.775598   0.000000
    18  H    1.756068   1.769068   0.000000
    19  C    2.142754   2.142888   2.182059   0.000000
    20  C    2.735130   2.840393   3.487187   1.506460   0.000000
    21  H    3.062645   2.660808   3.822452   2.146609   1.094977
    22  H    3.755745   3.828156   4.334094   2.173179   1.095146
    23  H    2.551902   3.237172   3.764859   2.147680   1.094956
    24  C    3.266405   3.200354   2.717185   1.347394   2.480855
    25  H    4.140106   4.102740   3.796375   2.098316   2.656185
    26  C    3.945473   3.797042   2.746329   2.560817   3.924107
    27  H    3.677637   3.310849   2.130659   2.755014   4.237302
    28  H    4.915866   4.502160   3.675562   3.304460   4.520618
                   21         22         23         24         25
    21  H    0.000000
    22  H    1.767867   0.000000
    23  H    1.777991   1.768109   0.000000
    24  C    3.199873   2.613757   3.190553   0.000000
    25  H    3.423636   2.317761   3.402302   1.090111   0.000000
    26  C    4.555074   4.116893   4.560658   1.505563   2.188019
    27  H    4.698097   4.660819   4.850496   2.162357   3.072625
    28  H    5.051997   4.531983   5.300872   2.116191   2.403387
                   26         27         28
    26  C    0.000000
    27  H    1.094919   0.000000
    28  H    1.097395   1.745480   0.000000
 Stoichiometry    C10H18
 Framework group  C1[X(C10H18)]
 Deg. of freedom    78
 Full point group                 C1      NOp   1
 Largest Abelian subgroup         C1      NOp   1
 Largest concise Abelian subgroup C1      NOp   1
                         Standard orientation:                         
 ---------------------------------------------------------------------
 Center     Atomic      Atomic             Coordinates (Angstroms)
 Number     Number       Type             X           Y           Z
 ---------------------------------------------------------------------
      1          6           0       -0.793799   -0.586517    0.589148
      2          1           0       -0.484651    0.235355    1.246115
      3          1           0       -0.745962   -1.484329    1.220021
      4          6           0       -2.220868   -0.386958    0.122028
      5          6           0       -2.975627   -1.655043   -0.184591
      6          1           0       -2.478745   -2.212208   -0.984903
      7          1           0       -4.003228   -1.458207   -0.508135
      8          1           0       -3.025236   -2.291708    0.704768
      9          6           0       -2.820237    0.813878   -0.001610
     10          1           0       -3.860427    0.846719   -0.324658
     11          6           0       -2.215694    2.161925    0.234759
     12          1           0       -2.690835    2.635752    1.099027
     13          1           0       -2.388730    2.797199   -0.639948
     14          1           0       -1.137508    2.131984    0.406262
     15          6           0        2.466006    1.425896   -0.456092
     16          1           0        2.815317    2.072719    0.356007
     17          1           0        3.076461    1.626117   -1.342551
     18          1           0        1.439632    1.726008   -0.678912
     19          6           0        2.593393   -0.018264   -0.056228
     20          6           0        3.965053   -0.407929    0.429706
     21          1           0        4.709054   -0.227424   -0.353145
     22          1           0        4.023719   -1.466068    0.705832
     23          1           0        4.237076    0.181264    1.311625
     24          6           0        1.596317   -0.923591   -0.097389
     25          1           0        1.803962   -1.940192    0.236898
     26          6           0        0.185968   -0.715540   -0.581485
     27          1           0        0.111209    0.157032   -1.238658
     28          1           0       -0.084175   -1.577154   -1.205120
 ---------------------------------------------------------------------
 Rotational constants (GHZ):           2.2180966           0.5802374           0.4854268
 Leave Link  202 at Fri Sep 17 14:33:53 2021, MaxMem=   524288000 cpu:               0.0 elap:               0.7
 (Enter /opt/gaussian/g16_legacy/l301.exe)
 Standard basis: 6-31G(d,p) (6D, 7F)
 Ernie: Thresh=  0.10000D-02 Tol=  0.10000D-05 Strict=F.
 There are   240 symmetry adapted cartesian basis functions of A   symmetry.
 There are   240 symmetry adapted basis functions of A   symmetry.
   240 basis functions,   406 primitive gaussians,   240 cartesian basis functions
    39 alpha electrons       39 beta electrons
       nuclear repulsion energy       516.4361997338 Hartrees.
 IExCor=    0 DFT=F Ex=HF Corr=None ExCW=0 ScaHFX=  1.000000
 ScaDFX=  1.000000  1.000000  1.000000  1.000000 ScalE2=  1.000000  1.000000
 IRadAn=      5 IRanWt=     -1 IRanGd=            0 ICorTp=0 IEmpDi=  4
 NAtoms=   28 NActive=   28 NUniq=   28 SFac= 1.00D+00 NAtFMM=   60 NAOKFM=F Big=F
 Integral buffers will be    131072 words long.
 Raffenetti 1 integral format.
 Two-electron integral symmetry is turned on.
 Leave Link  301 at Fri Sep 17 14:33:55 2021, MaxMem=   524288000 cpu:               0.0 elap:               0.4
 (Enter /opt/gaussian/g16_legacy/l302.exe)
 NPDir=0 NMtPBC=     1 NCelOv=     1 NCel=       1 NClECP=     1 NCelD=      1
         NCelK=      1 NCelE2=     1 NClLst=     1 CellRange=     0.0.
 One-electron integrals computed using PRISM.
 One-electron integral symmetry used in STVInt
 NBasis=   240 RedAO= T EigKep=  2.10D-03  NBF=   240
 NBsUse=   240 1.00D-06 EigRej= -1.00D+00 NBFU=   240
 Leave Link  302 at Fri Sep 17 14:33:56 2021, MaxMem=   524288000 cpu:               0.2 elap:               1.2
 (Enter /opt/gaussian/g16_legacy/l303.exe)
 DipDrv:  MaxL=1.
 Leave Link  303 at Fri Sep 17 14:33:57 2021, MaxMem=   524288000 cpu:               0.0 elap:               0.2
 (Enter /opt/gaussian/g16_legacy/l401.exe)
 ExpMin= 1.61D-01 ExpMax= 3.05D+03 ExpMxC= 4.57D+02 IAcc=3 IRadAn=         5 AccDes= 0.00D+00
 Harris functional with IExCor=  205 and IRadAn=       5 diagonalized for initial guess.
 HarFok:  IExCor=  205 AccDes= 0.00D+00 IRadAn=         5 IDoV= 1 UseB2=F ITyADJ=14
 ICtDFT=  3500011 ScaDFX=  1.000000  1.000000  1.000000  1.000000
 FoFCou: FMM=F IPFlag=           0 FMFlag=      100000 FMFlg1=           0
         NFxFlg=           0 DoJE=T BraDBF=F KetDBF=T FulRan=T
         wScrn=  0.000000 ICntrl=       500 IOpCl=  0 I1Cent=   200000004 NGrid=           0
         NMat0=    1 NMatS0=      1 NMatT0=    0 NMatD0=    1 NMtDS0=    0 NMtDT0=    0
 Petite list used in FoFCou.
 Harris En= -390.109898159813    
 JPrj=0 DoOrth=F DoCkMO=F.
 Leave Link  401 at Fri Sep 17 14:34:04 2021, MaxMem=   524288000 cpu:               6.4 elap:               7.2
 (Enter /opt/gaussian/g16_legacy/l502.exe)
 Keep R1 ints in memory in canonical form, NReq=425198025.
 FoFCou: FMM=F IPFlag=           0 FMFlag=           0 FMFlg1=           0
         NFxFlg=           0 DoJE=F BraDBF=F KetDBF=F FulRan=T
         wScrn=  0.000000 ICntrl=       600 IOpCl=  0 I1Cent=           0 NGrid=           0
         NMat0=    1 NMatS0=  28920 NMatT0=    0 NMatD0=    1 NMtDS0=    0 NMtDT0=    0
 Symmetry not used in FoFCou.
 Two-electron integral symmetry not used.
 Closed shell SCF:
 Using DIIS extrapolation, IDIIS=  1040.
 NGot=   524288000 LenX=   105970886 LenY=   105912845
 Requested convergence on RMS density matrix=1.00D-08 within 128 cycles.
 Requested convergence on MAX density matrix=1.00D-06.
 Requested convergence on             energy=1.00D-06.
 No special actions if energy rises.

 Cycle   1  Pass 1  IDiag  1:
 E= -388.533179539143    
 DIIS: error= 5.21D-02 at cycle   1 NSaved=   1.
 NSaved= 1 IEnMin= 1 EnMin= -388.533179539143     IErMin= 1 ErrMin= 5.21D-02
 ErrMax= 5.21D-02  0.00D+00 EMaxC= 1.00D-01 BMatC= 8.07D-01 BMatP= 8.07D-01
 IDIUse=3 WtCom= 4.79D-01 WtEn= 5.21D-01
 Coeff-Com:  0.100D+01
 Coeff-En:   0.100D+01
 Coeff:      0.100D+01
 Gap=     0.508 Goal=   None    Shift=    0.000
 GapD=    0.508 DampG=2.000 DampE=0.500 DampFc=1.0000 IDamp=-1.
 RMSDP=4.00D-03 MaxDP=1.14D-01              OVMax= 1.33D-01

 Cycle   2  Pass 1  IDiag  1:
 E= -389.073872865021     Delta-E=       -0.540693325878 Rises=F Damp=F
 DIIS: error= 1.59D-02 at cycle   2 NSaved=   2.
 NSaved= 2 IEnMin= 2 EnMin= -389.073872865021     IErMin= 2 ErrMin= 1.59D-02
 ErrMax= 1.59D-02  0.00D+00 EMaxC= 1.00D-01 BMatC= 8.66D-02 BMatP= 8.07D-01
 IDIUse=3 WtCom= 8.41D-01 WtEn= 1.59D-01
 Coeff-Com:  0.183D+00 0.817D+00
 Coeff-En:   0.000D+00 0.100D+01
 Coeff:      0.154D+00 0.846D+00
 Gap=     0.549 Goal=   None    Shift=    0.000
 RMSDP=1.63D-03 MaxDP=3.04D-02 DE=-5.41D-01 OVMax= 4.61D-02

 Cycle   3  Pass 1  IDiag  1:
 E= -389.151433847364     Delta-E=       -0.077560982343 Rises=F Damp=F
 DIIS: error= 3.43D-03 at cycle   3 NSaved=   3.
 NSaved= 3 IEnMin= 3 EnMin= -389.151433847364     IErMin= 3 ErrMin= 3.43D-03
 ErrMax= 3.43D-03  0.00D+00 EMaxC= 1.00D-01 BMatC= 3.14D-03 BMatP= 8.66D-02
 IDIUse=3 WtCom= 9.66D-01 WtEn= 3.43D-02
 Coeff-Com: -0.245D-01 0.106D+00 0.919D+00
 Coeff-En:   0.000D+00 0.000D+00 0.100D+01
 Coeff:     -0.236D-01 0.102D+00 0.921D+00
 Gap=     0.499 Goal=   None    Shift=    0.000
 RMSDP=2.59D-04 MaxDP=7.15D-03 DE=-7.76D-02 OVMax= 1.01D-02

 Cycle   4  Pass 1  IDiag  1:
 E= -389.155059973909     Delta-E=       -0.003626126546 Rises=F Damp=F
 DIIS: error= 5.31D-04 at cycle   4 NSaved=   4.
 NSaved= 4 IEnMin= 4 EnMin= -389.155059973909     IErMin= 4 ErrMin= 5.31D-04
 ErrMax= 5.31D-04  0.00D+00 EMaxC= 1.00D-01 BMatC= 9.29D-05 BMatP= 3.14D-03
 IDIUse=3 WtCom= 9.95D-01 WtEn= 5.31D-03
 Coeff-Com: -0.424D-02-0.187D-02 0.952D-01 0.911D+00
 Coeff-En:   0.000D+00 0.000D+00 0.000D+00 0.100D+01
 Coeff:     -0.422D-02-0.186D-02 0.947D-01 0.911D+00
 Gap=     0.499 Goal=   None    Shift=    0.000
 RMSDP=7.39D-05 MaxDP=1.49D-03 DE=-3.63D-03 OVMax= 3.14D-03

 Cycle   5  Pass 1  IDiag  1:
 E= -389.155184378946     Delta-E=       -0.000124405037 Rises=F Damp=F
 DIIS: error= 1.63D-04 at cycle   5 NSaved=   5.
 NSaved= 5 IEnMin= 5 EnMin= -389.155184378946     IErMin= 5 ErrMin= 1.63D-04
 ErrMax= 1.63D-04  0.00D+00 EMaxC= 1.00D-01 BMatC= 1.60D-05 BMatP= 9.29D-05
 IDIUse=3 WtCom= 9.98D-01 WtEn= 1.63D-03
 Coeff-Com:  0.241D-02-0.152D-01-0.102D+00 0.176D+00 0.939D+00
 Coeff-En:   0.000D+00 0.000D+00 0.000D+00 0.000D+00 0.100D+01
 Coeff:      0.241D-02-0.152D-01-0.102D+00 0.175D+00 0.939D+00
 Gap=     0.500 Goal=   None    Shift=    0.000
 RMSDP=3.00D-05 MaxDP=6.57D-04 DE=-1.24D-04 OVMax= 9.24D-04

 Cycle   6  Pass 1  IDiag  1:
 E= -389.155205878179     Delta-E=       -0.000021499233 Rises=F Damp=F
 DIIS: error= 3.58D-05 at cycle   6 NSaved=   6.
 NSaved= 6 IEnMin= 6 EnMin= -389.155205878179     IErMin= 6 ErrMin= 3.58D-05
 ErrMax= 3.58D-05  0.00D+00 EMaxC= 1.00D-01 BMatC= 5.50D-07 BMatP= 1.60D-05
 IDIUse=1 WtCom= 1.00D+00 WtEn= 0.00D+00
 Coeff-Com:  0.720D-03-0.335D-02-0.261D-01-0.434D-02 0.177D+00 0.856D+00
 Coeff:      0.720D-03-0.335D-02-0.261D-01-0.434D-02 0.177D+00 0.856D+00
 Gap=     0.500 Goal=   None    Shift=    0.000
 RMSDP=5.30D-06 MaxDP=1.61D-04 DE=-2.15D-05 OVMax= 3.23D-04

 Cycle   7  Pass 1  IDiag  1:
 E= -389.155206719693     Delta-E=       -0.000000841514 Rises=F Damp=F
 DIIS: error= 1.03D-05 at cycle   7 NSaved=   7.
 NSaved= 7 IEnMin= 7 EnMin= -389.155206719693     IErMin= 7 ErrMin= 1.03D-05
 ErrMax= 1.03D-05  0.00D+00 EMaxC= 1.00D-01 BMatC= 5.44D-08 BMatP= 5.50D-07
 IDIUse=1 WtCom= 1.00D+00 WtEn= 0.00D+00
 Coeff-Com: -0.494D-04 0.464D-03 0.301D-02-0.105D-01-0.468D-01 0.145D+00
 Coeff-Com:  0.909D+00
 Coeff:     -0.494D-04 0.464D-03 0.301D-02-0.105D-01-0.468D-01 0.145D+00
 Coeff:      0.909D+00
 Gap=     0.500 Goal=   None    Shift=    0.000
 RMSDP=1.71D-06 MaxDP=4.09D-05 DE=-8.42D-07 OVMax= 8.42D-05

 Cycle   8  Pass 1  IDiag  1:
 E= -389.155206808638     Delta-E=       -0.000000088945 Rises=F Damp=F
 DIIS: error= 3.51D-06 at cycle   8 NSaved=   8.
 NSaved= 8 IEnMin= 8 EnMin= -389.155206808638     IErMin= 8 ErrMin= 3.51D-06
 ErrMax= 3.51D-06  0.00D+00 EMaxC= 1.00D-01 BMatC= 5.10D-09 BMatP= 5.44D-08
 IDIUse=1 WtCom= 1.00D+00 WtEn= 0.00D+00
 Coeff-Com: -0.581D-04 0.249D-03 0.208D-02 0.315D-02-0.171D-01-0.804D-01
 Coeff-Com: -0.123D+00 0.121D+01
 Coeff:     -0.581D-04 0.249D-03 0.208D-02 0.315D-02-0.171D-01-0.804D-01
 Coeff:     -0.123D+00 0.121D+01
 Gap=     0.500 Goal=   None    Shift=    0.000
 RMSDP=7.85D-07 MaxDP=2.40D-05 DE=-8.89D-08 OVMax= 5.81D-05

 Cycle   9  Pass 1  IDiag  1:
 E= -389.155206824514     Delta-E=       -0.000000015875 Rises=F Damp=F
 DIIS: error= 1.46D-06 at cycle   9 NSaved=   9.
 NSaved= 9 IEnMin= 9 EnMin= -389.155206824514     IErMin= 9 ErrMin= 1.46D-06
 ErrMax= 1.46D-06  0.00D+00 EMaxC= 1.00D-01 BMatC= 7.38D-10 BMatP= 5.10D-09
 IDIUse=1 WtCom= 1.00D+00 WtEn= 0.00D+00
 Coeff-Com:  0.927D-05-0.689D-04-0.480D-03 0.144D-02 0.385D-02 0.807D-04
 Coeff-Com: -0.865D-01-0.120D+00 0.120D+01
 Coeff:      0.927D-05-0.689D-04-0.480D-03 0.144D-02 0.385D-02 0.807D-04
 Coeff:     -0.865D-01-0.120D+00 0.120D+01
 Gap=     0.500 Goal=   None    Shift=    0.000
 RMSDP=2.99D-07 MaxDP=1.24D-05 DE=-1.59D-08 OVMax= 2.71D-05

 Cycle  10  Pass 1  IDiag  1:
 E= -389.155206826918     Delta-E=       -0.000000002404 Rises=F Damp=F
 DIIS: error= 3.97D-07 at cycle  10 NSaved=  10.
 NSaved=10 IEnMin=10 EnMin= -389.155206826918     IErMin=10 ErrMin= 3.97D-07
 ErrMax= 3.97D-07  0.00D+00 EMaxC= 1.00D-01 BMatC= 1.21D-10 BMatP= 7.38D-10
 IDIUse=1 WtCom= 1.00D+00 WtEn= 0.00D+00
 Coeff-Com:  0.953D-05-0.464D-04-0.369D-03-0.135D-03 0.233D-02 0.142D-01
 Coeff-Com:  0.593D-02-0.211D+00 0.144D+00 0.105D+01
 Coeff:      0.953D-05-0.464D-04-0.369D-03-0.135D-03 0.233D-02 0.142D-01
 Coeff:      0.593D-02-0.211D+00 0.144D+00 0.105D+01
 Gap=     0.500 Goal=   None    Shift=    0.000
 RMSDP=1.24D-07 MaxDP=3.06D-06 DE=-2.40D-09 OVMax= 9.88D-06

 Cycle  11  Pass 1  IDiag  1:
 E= -389.155206827256     Delta-E=       -0.000000000338 Rises=F Damp=F
 DIIS: error= 1.55D-07 at cycle  11 NSaved=  11.
 NSaved=11 IEnMin=11 EnMin= -389.155206827256     IErMin=11 ErrMin= 1.55D-07
 ErrMax= 1.55D-07  0.00D+00 EMaxC= 1.00D-01 BMatC= 9.54D-12 BMatP= 1.21D-10
 IDIUse=1 WtCom= 1.00D+00 WtEn= 0.00D+00
 Coeff-Com:  0.396D-06 0.831D-06 0.941D-06-0.149D-03-0.305D-03 0.278D-02
 Coeff-Com:  0.110D-01-0.153D-01-0.107D+00 0.164D+00 0.945D+00
 Coeff:      0.396D-06 0.831D-06 0.941D-06-0.149D-03-0.305D-03 0.278D-02
 Coeff:      0.110D-01-0.153D-01-0.107D+00 0.164D+00 0.945D+00
 Gap=     0.500 Goal=   None    Shift=    0.000
 RMSDP=2.77D-08 MaxDP=1.16D-06 DE=-3.38D-10 OVMax= 2.51D-06

 Cycle  12  Pass 1  IDiag  1:
 E= -389.155206827278     Delta-E=       -0.000000000022 Rises=F Damp=F
 DIIS: error= 3.63D-08 at cycle  12 NSaved=  12.
 NSaved=12 IEnMin=12 EnMin= -389.155206827278     IErMin=12 ErrMin= 3.63D-08
 ErrMax= 3.63D-08  0.00D+00 EMaxC= 1.00D-01 BMatC= 1.17D-12 BMatP= 9.54D-12
 IDIUse=1 WtCom= 1.00D+00 WtEn= 0.00D+00
 Coeff-Com: -0.102D-05 0.547D-05 0.429D-04 0.327D-05-0.342D-03-0.126D-02
 Coeff-Com:  0.365D-03 0.217D-01-0.321D-01-0.113D+00 0.979D-01 0.103D+01
 Coeff:     -0.102D-05 0.547D-05 0.429D-04 0.327D-05-0.342D-03-0.126D-02
 Coeff:      0.365D-03 0.217D-01-0.321D-01-0.113D+00 0.979D-01 0.103D+01
 Gap=     0.500 Goal=   None    Shift=    0.000
 RMSDP=1.18D-08 MaxDP=3.33D-07 DE=-2.18D-11 OVMax= 8.46D-07

 Cycle  13  Pass 1  IDiag  1:
 E= -389.155206827273     Delta-E=        0.000000000005 Rises=F Damp=F
 DIIS: error= 1.06D-08 at cycle  13 NSaved=  13.
 NSaved=13 IEnMin=12 EnMin= -389.155206827278     IErMin=13 ErrMin= 1.06D-08
 ErrMax= 1.06D-08  0.00D+00 EMaxC= 1.00D-01 BMatC= 5.47D-14 BMatP= 1.17D-12
 IDIUse=1 WtCom= 1.00D+00 WtEn= 0.00D+00
 Coeff-Com: -0.122D-06 0.462D-06 0.389D-05 0.136D-04-0.170D-04-0.298D-03
 Coeff-Com: -0.849D-03 0.352D-02 0.515D-02-0.212D-01-0.612D-01 0.111D+00
 Coeff-Com:  0.964D+00
 Coeff:     -0.122D-06 0.462D-06 0.389D-05 0.136D-04-0.170D-04-0.298D-03
 Coeff:     -0.849D-03 0.352D-02 0.515D-02-0.212D-01-0.612D-01 0.111D+00
 Coeff:      0.964D+00
 Gap=     0.500 Goal=   None    Shift=    0.000
 RMSDP=2.13D-09 MaxDP=7.03D-08 DE= 5.12D-12 OVMax= 1.05D-07

 SCF Done:  E(RHF) =  -389.155206827     A.U. after   13 cycles
            NFock= 13  Conv=0.21D-08     -V/T= 2.0014
 KE= 3.886259909790D+02 PE=-1.937506258087D+03 EE= 6.432888605468D+02
 Leave Link  502 at Fri Sep 17 14:34:23 2021, MaxMem=   524288000 cpu:              18.1 elap:              18.8
 (Enter /opt/gaussian/g16_legacy/l801.exe)
 ExpMin= 1.61D-01 ExpMax= 3.05D+03 ExpMxC= 4.57D+02 IAcc=3 IRadAn=         5 AccDes= 0.00D+00
 HarFok:  IExCor=  205 AccDes= 0.00D+00 IRadAn=         5 IDoV=-2 UseB2=F ITyADJ=14
 ICtDFT= 12500011 ScaDFX=  1.000000  1.000000  1.000000  1.000000
 Largest valence mixing into a core orbital is  1.98D-04
 Largest core mixing into a valence orbital is  3.52D-05
 Range of M.O.s used for correlation:    11   240
 NBasis=   240 NAE=    39 NBE=    39 NFC=    10 NFV=     0
 NROrb=    230 NOA=    29 NOB=    29 NVA=   201 NVB=   201
 Leave Link  801 at Fri Sep 17 14:34:26 2021, MaxMem=   524288000 cpu:               1.0 elap:               1.6
 (Enter /opt/gaussian/g16_legacy/l906.exe)
 Frozen-core derivative calculation, NFC=  10 NFV=   0.
 FulOut=F Deriv=T AODrv=T NAtomX=    28
   MMem=          88  MDisk=          29 MDiskD=          29
  W3Min=     2246400 MinDsk=     2795480 NBas6D=         240
 NBas2D=       29244    NTT=       28920    LW2=     2040000
    MDV=   523626386 MDiskM=       30186 NBas2p=       24383
 Fully direct method using O(ONN) memory.
 IMap=   1   2   3   4   5   6   7   8   9  10  11  12  13  14  15  16  17  18  19  20
 IMap=  21  22  23  24  25  26  27  28  29  30  31  32  33  34  35  36  37  38  39
 JobTyp=1 Pass  1:  I=  11 to  39 NPSUse=  1 ParTrn=F ParDer=F DoDerP=T.
 Spin components of T(2) and E(2):
     alpha-alpha T2 =       0.5715141024D-01 E2=     -0.1638026558D+00
     alpha-beta  T2 =       0.3618148842D+00 E2=     -0.1089337299D+01
     beta-beta   T2 =       0.5715141024D-01 E2=     -0.1638026558D+00
 The integrals were generated   1 times.
 ANorm=    0.1214955845D+01
 E2 =    -0.1416942610D+01 EUMP2 =    -0.39057214943773D+03
 Leave Link  906 at Fri Sep 17 14:36:43 2021, MaxMem=   524288000 cpu:             137.5 elap:             137.5
 (Enter /opt/gaussian/g16_legacy/l1002.exe)
 Minotr:  Closed shell wavefunction.
          Computing MP2/KS-MP2 derivatives.
          Using Z-Vector for PSCF gradient.
          Skipping F1 and S1 gradient terms here.
          IDoAtm=1111111111111111111111111111
          Frozen-core window.
          Direct CPHF calculation.
          Differentiating once with respect to electric field.
                with respect to dipole field.
          Differentiating once with respect to nuclear coordinates.
          Requested convergence is 1.0D-10 RMS, and 1.0D-09 maximum.
          NewPWx=F KeepS1=T KeepF1=T KeepIn=T MapXYZ=F SortEE=F KeepMc=T.
 Keep R1 ints in memory in canonical form, NReq=425201067.
 FoFCou: FMM=F IPFlag=           0 FMFlag=           0 FMFlg1=           0
         NFxFlg=           0 DoJE=F BraDBF=F KetDBF=F FulRan=T
         wScrn=  0.000000 ICntrl=       600 IOpCl=  0 I1Cent=           0 NGrid=           0
         NMat0=    1 NMatS0=  28920 NMatT0=    0 NMatD0=    1 NMtDS0=    0 NMtDT0=    0
 Symmetry not used in FoFCou.
 Two-electron integral symmetry not used.
          MDV=     524288000 using IRadAn=       5.
          Solving linear equations separately, MaxMat=       0.
          There are     1 degrees of freedom in the 1st order CPHF.  IDoFFX=0 NUNeed=     1.
 LinEq1:  Iter=  0 NonCon=     1 RMS=2.55D-03 Max=3.76D-02 NDo=     1
 AX will form     1 AO Fock derivatives at one time.
 LinEq1:  Iter=  1 NonCon=     1 RMS=6.90D-04 Max=9.74D-03 NDo=     1
 LinEq1:  Iter=  2 NonCon=     1 RMS=1.61D-04 Max=4.14D-03 NDo=     1
 LinEq1:  Iter=  3 NonCon=     1 RMS=4.31D-05 Max=5.08D-04 NDo=     1
 LinEq1:  Iter=  4 NonCon=     1 RMS=1.99D-05 Max=8.55D-04 NDo=     1
 LinEq1:  Iter=  5 NonCon=     1 RMS=5.06D-06 Max=8.26D-05 NDo=     1
 LinEq1:  Iter=  6 NonCon=     1 RMS=1.63D-06 Max=2.68D-05 NDo=     1
 LinEq1:  Iter=  7 NonCon=     1 RMS=4.13D-07 Max=4.18D-06 NDo=     1
 LinEq1:  Iter=  8 NonCon=     1 RMS=1.01D-07 Max=1.86D-06 NDo=     1
 LinEq1:  Iter=  9 NonCon=     1 RMS=2.33D-08 Max=6.32D-07 NDo=     1
 LinEq1:  Iter= 10 NonCon=     1 RMS=6.42D-09 Max=1.62D-07 NDo=     1
 LinEq1:  Iter= 11 NonCon=     1 RMS=1.89D-09 Max=3.63D-08 NDo=     1
 LinEq1:  Iter= 12 NonCon=     1 RMS=4.10D-10 Max=6.74D-09 NDo=     1
 LinEq1:  Iter= 13 NonCon=     1 RMS=1.02D-10 Max=9.17D-10 NDo=     1
 LinEq1:  Iter= 14 NonCon=     1 RMS=3.73D-11 Max=1.25D-09 NDo=     1
 LinEq1:  Iter= 15 NonCon=     0 RMS=1.14D-11 Max=1.62D-10 NDo=     1
 Linear equations converged to 1.000D-10 1.000D-09 after    15 iterations.
 End of Minotr F.D. properties file   721 does not exist.
 End of Minotr F.D. properties file   722 does not exist.
 End of Minotr F.D. properties file   788 does not exist.
 Leave Link 1002 at Fri Sep 17 14:37:01 2021, MaxMem=   524288000 cpu:              18.3 elap:              18.3
 (Enter /opt/gaussian/g16_legacy/l601.exe)
 Copying SCF densities to generalized density rwf, IOpCl= 0 IROHF=0.

 **********************************************************************

            Population analysis using the SCF density.

 **********************************************************************

 Orbital symmetries:
       Occupied  (A) (A) (A) (A) (A) (A) (A) (A) (A) (A) (A) (A)
                 (A) (A) (A) (A) (A) (A) (A) (A) (A) (A) (A) (A)
                 (A) (A) (A) (A) (A) (A) (A) (A) (A) (A) (A) (A)
                 (A) (A) (A)
       Virtual   (A) (A) (A) (A) (A) (A) (A) (A) (A) (A) (A) (A)
                 (A) (A) (A) (A) (A) (A) (A) (A) (A) (A) (A) (A)
                 (A) (A) (A) (A) (A) (A) (A) (A) (A) (A) (A) (A)
                 (A) (A) (A) (A) (A) (A) (A) (A) (A) (A) (A) (A)
                 (A) (A) (A) (A) (A) (A) (A) (A) (A) (A) (A) (A)
                 (A) (A) (A) (A) (A) (A) (A) (A) (A) (A) (A) (A)
                 (A) (A) (A) (A) (A) (A) (A) (A) (A) (A) (A) (A)
                 (A) (A) (A) (A) (A) (A) (A) (A) (A) (A) (A) (A)
                 (A) (A) (A) (A) (A) (A) (A) (A) (A) (A) (A) (A)
                 (A) (A) (A) (A) (A) (A) (A) (A) (A) (A) (A) (A)
                 (A) (A) (A) (A) (A) (A) (A) (A) (A) (A) (A) (A)
                 (A) (A) (A) (A) (A) (A) (A) (A) (A) (A) (A) (A)
                 (A) (A) (A) (A) (A) (A) (A) (A) (A) (A) (A) (A)
                 (A) (A) (A) (A) (A) (A) (A) (A) (A) (A) (A) (A)
                 (A) (A) (A) (A) (A) (A) (A) (A) (A) (A) (A) (A)
                 (A) (A) (A) (A) (A) (A) (A) (A) (A) (A) (A) (A)
                 (A) (A) (A) (A) (A) (A) (A) (A) (A)
 The electronic state is 1-A.
 Alpha  occ. eigenvalues --  -11.23060 -11.22505 -11.22000 -11.21921 -11.21883
 Alpha  occ. eigenvalues --  -11.21651 -11.21554 -11.21485 -11.21455 -11.21438
 Alpha  occ. eigenvalues --   -1.10624  -1.08327  -1.01911  -0.98012  -0.93646
 Alpha  occ. eigenvalues --   -0.91776  -0.86755  -0.82685  -0.70599  -0.69343
 Alpha  occ. eigenvalues --   -0.64584  -0.61545  -0.60101  -0.59030  -0.58087
 Alpha  occ. eigenvalues --   -0.56803  -0.55368  -0.55150  -0.53548  -0.51981
 Alpha  occ. eigenvalues --   -0.51716  -0.51321  -0.50592  -0.49228  -0.48276
 Alpha  occ. eigenvalues --   -0.46014  -0.44272  -0.33356  -0.31525
 Alpha virt. eigenvalues --    0.18456   0.19493   0.22038   0.24454   0.25183
 Alpha virt. eigenvalues --    0.27141   0.28394   0.28932   0.30249   0.30503
 Alpha virt. eigenvalues --    0.31237   0.32117   0.33135   0.33435   0.34031
 Alpha virt. eigenvalues --    0.35677   0.35774   0.36970   0.38998   0.40648
 Alpha virt. eigenvalues --    0.41064   0.42591   0.43322   0.44191   0.45151
 Alpha virt. eigenvalues --    0.51684   0.54047   0.61169   0.62445   0.70139
 Alpha virt. eigenvalues --    0.71102   0.71888   0.74281   0.76417   0.76617
 Alpha virt. eigenvalues --    0.76876   0.78796   0.79454   0.81139   0.82036
 Alpha virt. eigenvalues --    0.83810   0.85654   0.88078   0.91266   0.92026
 Alpha virt. eigenvalues --    0.92896   0.95178   0.97057   0.98263   0.99208
 Alpha virt. eigenvalues --    0.99751   1.00204   1.02302   1.03926   1.06180
 Alpha virt. eigenvalues --    1.07863   1.08638   1.08809   1.11199   1.12389
 Alpha virt. eigenvalues --    1.12560   1.13432   1.14584   1.14927   1.15819
 Alpha virt. eigenvalues --    1.16163   1.16403   1.18223   1.18706   1.20091
 Alpha virt. eigenvalues --    1.20658   1.22066   1.22852   1.25020   1.27541
 Alpha virt. eigenvalues --    1.34171   1.40670   1.41851   1.43738   1.45169
 Alpha virt. eigenvalues --    1.47559   1.53476   1.56256   1.56979   1.58249
 Alpha virt. eigenvalues --    1.59849   1.62721   1.65796   1.69519   1.70790
 Alpha virt. eigenvalues --    1.75334   1.82525   1.92034   1.92192   1.95501
 Alpha virt. eigenvalues --    1.98629   2.01126   2.02849   2.04184   2.08702
 Alpha virt. eigenvalues --    2.09244   2.11123   2.11378   2.13102   2.14504
 Alpha virt. eigenvalues --    2.15427   2.17688   2.19724   2.23578   2.27384
 Alpha virt. eigenvalues --    2.28339   2.29993   2.32199   2.34975   2.35568
 Alpha virt. eigenvalues --    2.35647   2.35783   2.39326   2.39851   2.40349
 Alpha virt. eigenvalues --    2.41283   2.41829   2.43039   2.45161   2.45384
 Alpha virt. eigenvalues --    2.47035   2.48339   2.49336   2.50338   2.54524
 Alpha virt. eigenvalues --    2.56587   2.57720   2.61275   2.62184   2.64353
 Alpha virt. eigenvalues --    2.66340   2.67161   2.72032   2.72995   2.73746
 Alpha virt. eigenvalues --    2.75717   2.77701   2.81090   2.82805   2.85159
 Alpha virt. eigenvalues --    2.87730   2.89152   2.91917   2.93440   2.94436
 Alpha virt. eigenvalues --    2.97093   2.99035   3.01164   3.02602   3.05103
 Alpha virt. eigenvalues --    3.05822   3.06631   3.08507   3.13017   3.15943
 Alpha virt. eigenvalues --    3.17135   3.18162   3.19613   3.20684   3.21264
 Alpha virt. eigenvalues --    3.23191   3.24415   3.26463   3.27244   3.36666
 Alpha virt. eigenvalues --    3.39074   3.44606   3.45619   3.55544   3.57298
 Alpha virt. eigenvalues --    3.58701   3.61055   3.66890   3.73949   3.78197
 Alpha virt. eigenvalues --    3.78866   3.80512   3.81321   3.82334   3.82839
 Alpha virt. eigenvalues --    3.84215   3.85754   3.87658   3.89511   3.91175
 Alpha virt. eigenvalues --    3.95896   4.59096   4.62634   4.74429   4.82817
 Alpha virt. eigenvalues --    4.88836   4.92668   4.93351   5.07551   5.10288
 Alpha virt. eigenvalues --    5.16870
          Condensed to atoms (all electrons):
               1          2          3          4          5          6
     1  C    5.001844   0.412347   0.413516   0.340273  -0.058754  -0.000532
     2  H    0.412347   0.571722  -0.030227  -0.040544   0.003239  -0.000030
     3  H    0.413516  -0.030227   0.588476  -0.045054  -0.004692  -0.000276
     4  C    0.340273  -0.040544  -0.045054   4.955068   0.349340  -0.045809
     5  C   -0.058754   0.003239  -0.004692   0.349340   4.896448   0.400288
     6  H   -0.000532  -0.000030  -0.000276  -0.045809   0.400288   0.594751
     7  H    0.003676  -0.000103   0.000081  -0.041408   0.406178  -0.028080
     8  H   -0.003552  -0.000016   0.002571  -0.043066   0.397383  -0.035014
     9  C   -0.044039  -0.002232   0.001917   0.698835  -0.045933  -0.001033
    10  H    0.003078   0.000060  -0.000114  -0.036524  -0.006482   0.000123
    11  C   -0.007062  -0.002136   0.000138  -0.050686   0.003424  -0.000100
    12  H    0.000227   0.000172   0.000028  -0.001411  -0.000116  -0.000005
    13  H    0.000232  -0.000034  -0.000010   0.000593  -0.000100   0.000015
    14  H   -0.001828  -0.001334   0.000004  -0.000418   0.000092   0.000000
    15  C    0.000597   0.000160  -0.000016  -0.000018  -0.000000  -0.000000
    16  H    0.000077  -0.000076  -0.000001  -0.000002   0.000000   0.000000
    17  H   -0.000041   0.000014   0.000000   0.000001  -0.000000   0.000000
    18  H   -0.000053  -0.000052  -0.000012  -0.000027  -0.000000   0.000000
    19  C   -0.003608   0.001046   0.000615   0.000006  -0.000002   0.000000
    20  C   -0.000101  -0.000042  -0.000000   0.000002  -0.000000  -0.000000
    21  H   -0.000004   0.000001   0.000000   0.000000  -0.000000   0.000000
    22  H   -0.000003  -0.000002   0.000002   0.000000  -0.000000  -0.000000
    23  H    0.000022  -0.000005  -0.000001  -0.000000   0.000000   0.000000
    24  C   -0.063068  -0.000808  -0.000607   0.006131  -0.000158  -0.000086
    25  H    0.000005   0.000213   0.001003  -0.000155   0.000010   0.000012
    26  C    0.326224  -0.039857  -0.044600  -0.057364  -0.000188   0.000810
    27  H   -0.040288  -0.002144   0.004202  -0.001436   0.000317  -0.000009
    28  H   -0.045141   0.004291  -0.002604  -0.001852  -0.000392  -0.000187
               7          8          9         10         11         12
     1  C    0.003676  -0.003552  -0.044039   0.003078  -0.007062   0.000227
     2  H   -0.000103  -0.000016  -0.002232   0.000060  -0.002136   0.000172
     3  H    0.000081   0.002571   0.001917  -0.000114   0.000138   0.000028
     4  C   -0.041408  -0.043066   0.698835  -0.036524  -0.050686  -0.001411
     5  C    0.406178   0.397383  -0.045933  -0.006482   0.003424  -0.000116
     6  H   -0.028080  -0.035014  -0.001033   0.000123  -0.000100  -0.000005
     7  H    0.571049  -0.027610  -0.002739   0.002221   0.000137  -0.000004
     8  H   -0.027610   0.593623  -0.000426   0.000248  -0.000114   0.000021
     9  C   -0.002739  -0.000426   4.939977   0.404870   0.337731  -0.044354
    10  H    0.002221   0.000248   0.404870   0.559341  -0.043634  -0.000221
    11  C    0.000137  -0.000114   0.337731  -0.043634   4.906195   0.400024
    12  H   -0.000004   0.000021  -0.044354  -0.000221   0.400024   0.584256
    13  H   -0.000009  -0.000004  -0.042837  -0.002644   0.403005  -0.033272
    14  H    0.000004  -0.000001  -0.041933   0.003314   0.408025  -0.026859
    15  C   -0.000000  -0.000000   0.000010  -0.000000  -0.000097   0.000002
    16  H   -0.000000  -0.000000   0.000000  -0.000000  -0.000003  -0.000000
    17  H    0.000000   0.000000   0.000000   0.000000   0.000002   0.000000
    18  H    0.000000  -0.000000  -0.000032   0.000000   0.000040  -0.000008
    19  C    0.000000   0.000000   0.000001   0.000000   0.000007  -0.000000
    20  C    0.000000  -0.000000  -0.000000   0.000000  -0.000000   0.000000
    21  H    0.000000   0.000000   0.000000   0.000000  -0.000000   0.000000
    22  H    0.000000  -0.000000  -0.000000   0.000000   0.000000  -0.000000
    23  H   -0.000000  -0.000000  -0.000000  -0.000000   0.000000  -0.000000
    24  C    0.000003   0.000001   0.000070   0.000002  -0.000032   0.000002
    25  H   -0.000000  -0.000002  -0.000002  -0.000000   0.000000   0.000000
    26  C   -0.000097   0.000027  -0.004366  -0.000116   0.000690  -0.000050
    27  H   -0.000010   0.000012   0.001215  -0.000044   0.000071   0.000023
    28  H   -0.000025   0.000093   0.000514   0.000004  -0.000030  -0.000000
              13         14         15         16         17         18
     1  C    0.000232  -0.001828   0.000597   0.000077  -0.000041  -0.000053
     2  H   -0.000034  -0.001334   0.000160  -0.000076   0.000014  -0.000052
     3  H   -0.000010   0.000004  -0.000016  -0.000001   0.000000  -0.000012
     4  C    0.000593  -0.000418  -0.000018  -0.000002   0.000001  -0.000027
     5  C   -0.000100   0.000092  -0.000000   0.000000  -0.000000  -0.000000
     6  H    0.000015   0.000000  -0.000000   0.000000   0.000000   0.000000
     7  H   -0.000009   0.000004  -0.000000  -0.000000   0.000000   0.000000
     8  H   -0.000004  -0.000001  -0.000000  -0.000000   0.000000  -0.000000
     9  C   -0.042837  -0.041933   0.000010   0.000000   0.000000  -0.000032
    10  H   -0.002644   0.003314  -0.000000  -0.000000   0.000000   0.000000
    11  C    0.403005   0.408025  -0.000097  -0.000003   0.000002   0.000040
    12  H   -0.033272  -0.026859   0.000002  -0.000000   0.000000  -0.000008
    13  H    0.586786  -0.030014  -0.000004   0.000000  -0.000000   0.000042
    14  H   -0.030014   0.573873   0.000010   0.000034  -0.000006   0.000570
    15  C   -0.000004   0.000010   4.909237   0.402445   0.398272   0.406147
    16  H    0.000000   0.000034   0.402445   0.586200  -0.033094  -0.030021
    17  H   -0.000000  -0.000006   0.398272  -0.033094   0.582517  -0.026273
    18  H    0.000042   0.000570   0.406147  -0.030021  -0.026273   0.568192
    19  C    0.000000  -0.000013   0.348399  -0.043930  -0.043823  -0.037056
    20  C   -0.000000   0.000000  -0.065385  -0.003431  -0.001685   0.003678
    21  H   -0.000000  -0.000000  -0.001106  -0.000507   0.002553  -0.000023
    22  H   -0.000000  -0.000000   0.003695   0.000010  -0.000079  -0.000108
    23  H    0.000000  -0.000000  -0.002140   0.002847  -0.000371  -0.000072
    24  C   -0.000004   0.000003  -0.043321   0.000448  -0.000842  -0.002870
    25  H    0.000000  -0.000001   0.003365  -0.000110  -0.000126   0.000059
    26  C    0.000091  -0.000212  -0.007534   0.000286   0.000188  -0.001944
    27  H   -0.000079  -0.000251  -0.002064  -0.000043   0.000056  -0.001169
    28  H    0.000000  -0.000008   0.000169  -0.000012   0.000032   0.000031
              19         20         21         22         23         24
     1  C   -0.003608  -0.000101  -0.000004  -0.000003   0.000022  -0.063068
     2  H    0.001046  -0.000042   0.000001  -0.000002  -0.000005  -0.000808
     3  H    0.000615  -0.000000   0.000000   0.000002  -0.000001  -0.000607
     4  C    0.000006   0.000002   0.000000   0.000000  -0.000000   0.006131
     5  C   -0.000002  -0.000000  -0.000000  -0.000000   0.000000  -0.000158
     6  H    0.000000  -0.000000   0.000000  -0.000000   0.000000  -0.000086
     7  H    0.000000   0.000000   0.000000   0.000000  -0.000000   0.000003
     8  H    0.000000  -0.000000   0.000000  -0.000000  -0.000000   0.000001
     9  C    0.000001  -0.000000   0.000000  -0.000000  -0.000000   0.000070
    10  H    0.000000   0.000000   0.000000   0.000000  -0.000000   0.000002
    11  C    0.000007  -0.000000  -0.000000   0.000000   0.000000  -0.000032
    12  H   -0.000000   0.000000   0.000000  -0.000000  -0.000000   0.000002
    13  H    0.000000  -0.000000  -0.000000  -0.000000   0.000000  -0.000004
    14  H   -0.000013   0.000000  -0.000000  -0.000000  -0.000000   0.000003
    15  C    0.348399  -0.065385  -0.001106   0.003695  -0.002140  -0.043321
    16  H   -0.043930  -0.003431  -0.000507   0.000010   0.002847   0.000448
    17  H   -0.043823  -0.001685   0.002553  -0.000079  -0.000371  -0.000842
    18  H   -0.037056   0.003678  -0.000023  -0.000108  -0.000072  -0.002870
    19  C    4.918191   0.352276  -0.045767  -0.040394  -0.044299   0.698183
    20  C    0.352276   4.903277   0.399260   0.405422   0.396987  -0.044863
    21  H   -0.045767   0.399260   0.593091  -0.027564  -0.034906  -0.001135
    22  H   -0.040394   0.405422  -0.027564   0.568039  -0.027367  -0.002386
    23  H   -0.044299   0.396987  -0.034906  -0.027367   0.594305  -0.000547
    24  C    0.698183  -0.044863  -0.001135  -0.002386  -0.000547   4.961496
    25  H   -0.036135  -0.006748   0.000150   0.002177   0.000235   0.402018
    26  C   -0.048269   0.003153  -0.000124   0.000146  -0.000086   0.339925
    27  H    0.000823   0.000071   0.000004   0.000006  -0.000004  -0.043803
    28  H    0.000914  -0.000102   0.000012  -0.000011  -0.000002  -0.043355
              25         26         27         28
     1  C    0.000005   0.326224  -0.040288  -0.045141
     2  H    0.000213  -0.039857  -0.002144   0.004291
     3  H    0.001003  -0.044600   0.004202  -0.002604
     4  C   -0.000155  -0.057364  -0.001436  -0.001852
     5  C    0.000010  -0.000188   0.000317  -0.000392
     6  H    0.000012   0.000810  -0.000009  -0.000187
     7  H   -0.000000  -0.000097  -0.000010  -0.000025
     8  H   -0.000002   0.000027   0.000012   0.000093
     9  C   -0.000002  -0.004366   0.001215   0.000514
    10  H   -0.000000  -0.000116  -0.000044   0.000004
    11  C    0.000000   0.000690   0.000071  -0.000030
    12  H    0.000000  -0.000050   0.000023  -0.000000
    13  H    0.000000   0.000091  -0.000079   0.000000
    14  H   -0.000001  -0.000212  -0.000251  -0.000008
    15  C    0.003365  -0.007534  -0.002064   0.000169
    16  H   -0.000110   0.000286  -0.000043  -0.000012
    17  H   -0.000126   0.000188   0.000056   0.000032
    18  H    0.000059  -0.001944  -0.001169   0.000031
    19  C   -0.036135  -0.048269   0.000823   0.000914
    20  C   -0.006748   0.003153   0.000071  -0.000102
    21  H    0.000150  -0.000124   0.000004   0.000012
    22  H    0.002177   0.000146   0.000006  -0.000011
    23  H    0.000235  -0.000086  -0.000004  -0.000002
    24  C    0.402018   0.339925  -0.043803  -0.043355
    25  H    0.558500  -0.041272   0.003230  -0.003486
    26  C   -0.041272   4.982326   0.414876   0.413775
    27  H    0.003230   0.414876   0.571200  -0.029598
    28  H   -0.003486   0.413775  -0.029598   0.588509
 Mulliken charges:
               1
     1  C   -0.234042
     2  H    0.126377
     3  H    0.115661
     4  C    0.015525
     5  C   -0.339900
     6  H    0.115160
     7  H    0.116736
     8  H    0.115828
     9  C   -0.155215
    10  H    0.116516
    11  C   -0.355594
    12  H    0.121545
    13  H    0.118246
    14  H    0.116946
    15  C   -0.350821
    16  H    0.118884
    17  H    0.122706
    18  H    0.120959
    19  C    0.022836
    20  C   -0.341767
    21  H    0.116065
    22  H    0.118416
    23  H    0.115405
    24  C   -0.160397
    25  H    0.117061
    26  C   -0.236438
    27  H    0.124837
    28  H    0.118462
 Sum of Mulliken charges =  -0.00000
 Mulliken charges with hydrogens summed into heavy atoms:
               1
     1  C    0.007996
     4  C    0.015525
     5  C    0.007824
     9  C   -0.038699
    11  C    0.001144
    15  C    0.011729
    19  C    0.022836
    20  C    0.008120
    24  C   -0.043336
    26  C    0.006860
 Electronic spatial extent (au):  <R**2>=           2423.6429
 Charge=             -0.0000 electrons
 Dipole moment (field-independent basis, Debye):
    X=              0.2950    Y=              0.1261    Z=             -0.0060  Tot=              0.3208
 Quadrupole moment (field-independent basis, Debye-Ang):
   XX=            -64.5130   YY=            -63.6029   ZZ=            -67.0542
   XY=              0.6108   XZ=              0.8624   YZ=             -0.4857
 Traceless Quadrupole moment (field-independent basis, Debye-Ang):
   XX=              0.5437   YY=              1.4538   ZZ=             -1.9975
   XY=              0.6108   XZ=              0.8624   YZ=             -0.4857
 Octapole moment (field-independent basis, Debye-Ang**2):
  XXX=              1.3661  YYY=             -2.7219  ZZZ=              0.1841  XYY=             -0.5698
  XXY=              4.5359  XXZ=             -2.6528  XZZ=              1.5758  YZZ=              1.2280
  YYZ=              1.3701  XYZ=             -0.7516
 Hexadecapole moment (field-independent basis, Debye-Ang**3):
 XXXX=          -2492.2897 YYYY=           -696.1180 ZZZZ=           -174.8242 XXXY=             -2.3451
 XXXZ=             11.9326 YYYX=             -9.3501 YYYZ=             -3.0537 ZZZX=             -0.8379
 ZZZY=             -0.0654 XXYY=           -530.4675 XXZZ=           -456.3120 YYZZ=           -139.1723
 XXYZ=             -4.2442 YYXZ=              3.1983 ZZXY=              4.7003
 N-N= 5.164361997338D+02 E-N=-1.937506258200D+03  KE= 3.886259909790D+02
 No NMR shielding tensors so no spin-rotation constants.
 Leave Link  601 at Fri Sep 17 14:37:03 2021, MaxMem=   524288000 cpu:               0.2 elap:               0.8
 (Enter /opt/gaussian/g16_legacy/l701.exe)
 ... and contract with generalized density number  2.
 Compute integral first derivatives.
 Leave Link  701 at Fri Sep 17 14:37:03 2021, MaxMem=   524288000 cpu:               0.2 elap:               0.2
 (Enter /opt/gaussian/g16_legacy/l702.exe)
 L702 exits ... SP integral derivatives will be done elsewhere.
 Leave Link  702 at Fri Sep 17 14:37:03 2021, MaxMem=   524288000 cpu:               0.0 elap:               0.0
 (Enter /opt/gaussian/g16_legacy/l703.exe)
 Integral derivatives from FoFJK, PRISM(SPDF).
 Compute integral first derivatives, UseDBF=F ICtDFT=           0.
 Calling FoFJK, ICntrl=  10002127 FMM=F ISym2X=0 I1Cent= 0 IOpClX= 0 NMat=1 NMatS=1 NMatT=0.
 FoFJK:  IHMeth= 1 ICntrl=10002127 DoSepK=F KAlg= 0 I1Cent=           0 FoldK=F
 IRaf=         0 NMat=       1 IRICut=       1 DoRegI=T DoRafI=F ISym2E= 0 IDoP0=0 IntGTp=1.
 FoFCou: FMM=F IPFlag=           0 FMFlag=      100000 FMFlg1=         800
         NFxFlg=           0 DoJE=F BraDBF=F KetDBF=F FulRan=T
         wScrn=  0.000000 ICntrl=  10002127 IOpCl=  0 I1Cent=           0 NGrid=           0
         NMat0=    1 NMatS0=      1 NMatT0=    0 NMatD0=    1 NMtDS0=    0 NMtDT0=    0
 Symmetry not used in FoFCou.
 Leave Link  703 at Fri Sep 17 14:37:22 2021, MaxMem=   524288000 cpu:              19.2 elap:              19.2
 (Enter /opt/gaussian/g16_legacy/l716.exe)
 Dipole        = 9.11587671D-02 6.68644036D-02-4.80257937D-03
 ***** Axes restored to original set *****
 -------------------------------------------------------------------
 Center     Atomic                   Forces (Hartrees/Bohr)
 Number     Number              X              Y              Z
 -------------------------------------------------------------------
      1        6          -0.006873626   -0.006510458   -0.000951112
      2        1          -0.000337172    0.003737335    0.002852081
      3        1          -0.000663646    0.001728918    0.003329179
      4        6          -0.003059971   -0.001917045   -0.005390321
      5        6          -0.003136565    0.000062207    0.000706138
      6        1           0.000121047   -0.000775936   -0.003262850
      7        1           0.003823493   -0.001062878    0.001029061
      8        1           0.000701832    0.002468757    0.002174866
      9        6           0.001529516    0.003246679    0.001113300
     10        1           0.002477951    0.002168952   -0.001401862
     11        6           0.001687079   -0.001378508    0.001444054
     12        1           0.000941013   -0.000110356    0.003311289
     13        1           0.000760509   -0.002387322   -0.002382038
     14        1          -0.002618409    0.000596603   -0.001931781
     15        6          -0.004491027   -0.000640570    0.000765639
     16        1           0.000960719    0.003161860    0.001585125
     17        1           0.000397514   -0.002973419   -0.000937098
     18        1           0.002491313    0.002242548   -0.000906873
     19        6           0.000353167    0.000491908   -0.005295964
     20        6           0.000451142    0.001570763   -0.003008574
     21        1           0.000501952   -0.002999514   -0.001450419
     22        1          -0.002640199   -0.001924127    0.002904430
     23        1           0.001152370    0.002097772    0.002596777
     24        6          -0.002286176    0.003995709    0.002541393
     25        1           0.001752224   -0.002330998    0.001777991
     26        6           0.006832205    0.002553838    0.003134742
     27        1           0.000448237   -0.002112720   -0.003390147
     28        1          -0.001276494   -0.002999997   -0.000957027
 -------------------------------------------------------------------
 Cartesian Forces:  Max     0.006873626 RMS     0.002575661
 Leave Link  716 at Fri Sep 17 14:37:22 2021, MaxMem=   524288000 cpu:               0.0 elap:               0.0
 (Enter /opt/gaussian/g16_legacy/l103.exe)

 GradGradGradGradGradGradGradGradGradGradGradGradGradGradGradGradGradGrad
 Berny optimization.
 FormGI is forming the generalized inverse of G from B-inverse, IUseBI=4.
 Internal  Forces:  Max     0.004894829 RMS     0.001917174
 Search for a local minimum.
 Step number   1 out of a maximum of  138
 All quantities printed in internal units (Hartrees-Bohrs-Radians)
 RMS Force = .19172D-02 SwitMx=.10000D-02 MixMth= 1
 Mixed Optimization -- RFO/linear search
 Second derivative matrix not updated -- first step.
 ITU=  0
     Eigenvalues ---    0.00343   0.00570   0.00670   0.00680   0.00692
     Eigenvalues ---    0.00714   0.00816   0.01219   0.01287   0.01569
     Eigenvalues ---    0.01640   0.02779   0.02785   0.04018   0.04138
     Eigenvalues ---    0.05349   0.05399   0.06978   0.07035   0.07090
     Eigenvalues ---    0.07092   0.07269   0.07301   0.07347   0.07504
     Eigenvalues ---    0.09277   0.09362   0.12767   0.12843   0.15999
     Eigenvalues ---    0.15999   0.16000   0.16000   0.16000   0.16000
     Eigenvalues ---    0.16000   0.16000   0.16000   0.16000   0.16000
     Eigenvalues ---    0.16000   0.16000   0.16000   0.21859   0.21866
     Eigenvalues ---    0.22000   0.22000   0.24994   0.24997   0.24998
     Eigenvalues ---    0.24999   0.29241   0.30875   0.31631   0.31709
     Eigenvalues ---    0.31801   0.31972   0.32781   0.33866   0.33972
     Eigenvalues ---    0.34055   0.34196   0.34222   0.34225   0.34244
     Eigenvalues ---    0.34246   0.34250   0.34255   0.34262   0.34265
     Eigenvalues ---    0.34303   0.34334   0.34546   0.34565   0.34800
     Eigenvalues ---    0.34848   0.55494   0.55580
 RFO step:  Lambda=-2.96166531D-03 EMin= 3.42872077D-03
 Linear search not attempted -- first point.
 Iteration  1 RMS(Cart)=  0.03970172 RMS(Int)=  0.00072414
 Iteration  2 RMS(Cart)=  0.00093616 RMS(Int)=  0.00016657
 Iteration  3 RMS(Cart)=  0.00000043 RMS(Int)=  0.00016657
 ITry= 1 IFail=0 DXMaxC= 1.73D-01 DCOld= 1.00D+10 DXMaxT= 3.00D-01 DXLimC= 3.00D+00 Rises=F
 Variable       Old X    -DE/DX   Delta X   Delta X   Delta X     New X
                                 (Linear)    (Quad)   (Total)
    R1        2.07238  -0.00336   0.00000  -0.00977  -0.00977   2.06260
    R2        2.07556  -0.00278   0.00000  -0.00815  -0.00815   2.06742
    R3        2.86252  -0.00351   0.00000  -0.01125  -0.01125   2.85127
    R4        2.89503   0.00174   0.00000   0.00588   0.00588   2.90091
    R5        2.84823  -0.00046   0.00000  -0.00143  -0.00143   2.84681
    R6        2.54695  -0.00398   0.00000  -0.00714  -0.00714   2.53982
    R7        2.06821  -0.00175   0.00000  -0.00506  -0.00506   2.06315
    R8        2.06956  -0.00371   0.00000  -0.01074  -0.01074   2.05883
    R9        2.06902  -0.00213   0.00000  -0.00617  -0.00617   2.06285
   R10        2.05922  -0.00222   0.00000  -0.00631  -0.00631   2.05291
   R11        2.82738   0.00303   0.00000   0.00915   0.00915   2.83653
   R12        2.06770  -0.00158   0.00000  -0.00457  -0.00457   2.06313
   R13        2.06891  -0.00259   0.00000  -0.00751  -0.00751   2.06140
   R14        2.06387  -0.00284   0.00000  -0.00815  -0.00815   2.05572
   R15        2.07001  -0.00263   0.00000  -0.00763  -0.00763   2.06238
   R16        2.06884  -0.00186   0.00000  -0.00539  -0.00539   2.06345
   R17        2.06418  -0.00284   0.00000  -0.00816  -0.00816   2.05603
   R18        2.84196  -0.00048   0.00000  -0.00149  -0.00149   2.84047
   R19        2.84680  -0.00076   0.00000  -0.00238  -0.00238   2.84442
   R20        2.54621  -0.00323   0.00000  -0.00577  -0.00577   2.54043
   R21        2.06921  -0.00202   0.00000  -0.00584  -0.00584   2.06337
   R22        2.06953  -0.00398   0.00000  -0.01153  -0.01153   2.05800
   R23        2.06917  -0.00201   0.00000  -0.00581  -0.00581   2.06336
   R24        2.06001  -0.00196   0.00000  -0.00560  -0.00560   2.05441
   R25        2.84510  -0.00152   0.00000  -0.00472  -0.00472   2.84038
   R26        2.06910  -0.00275   0.00000  -0.00797  -0.00797   2.06112
   R27        2.07378  -0.00238   0.00000  -0.00694  -0.00694   2.06684
    A1        1.82992   0.00207   0.00000   0.02244   0.02228   1.85220
    A2        1.93006   0.00043   0.00000   0.00935   0.00939   1.93944
    A3        1.91834  -0.00278   0.00000  -0.02019  -0.02023   1.89811
    A4        1.90270  -0.00070   0.00000  -0.00278  -0.00277   1.89993
    A5        1.92006  -0.00194   0.00000  -0.01726  -0.01729   1.90277
    A6        1.95840   0.00283   0.00000   0.00911   0.00915   1.96754
    A7        2.00828   0.00238   0.00000   0.00971   0.00914   2.01742
    A8        2.17077  -0.00489   0.00000  -0.01899  -0.01952   2.15125
    A9        2.10395   0.00253   0.00000   0.01039   0.00981   2.11376
   A10        1.92807   0.00227   0.00000   0.01214   0.01216   1.94023
   A11        1.95924  -0.00262   0.00000  -0.01308  -0.01304   1.94620
   A12        1.92482   0.00165   0.00000   0.00898   0.00900   1.93383
   A13        1.87702   0.00055   0.00000   0.00563   0.00567   1.88269
   A14        1.89497  -0.00307   0.00000  -0.02471  -0.02470   1.87027
   A15        1.87756   0.00110   0.00000   0.01020   0.01023   1.88778
   A16        2.06980  -0.00195   0.00000  -0.01345  -0.01346   2.05634
   A17        2.22506  -0.00187   0.00000  -0.00834  -0.00836   2.21670
   A18        1.98819   0.00382   0.00000   0.02196   0.02194   2.01013
   A19        1.91717   0.00395   0.00000   0.02332   0.02329   1.94046
   A20        1.90999   0.00238   0.00000   0.01560   0.01554   1.92553
   A21        1.98122  -0.00299   0.00000  -0.01842  -0.01833   1.96289
   A22        1.88722  -0.00310   0.00000  -0.01889  -0.01907   1.86815
   A23        1.89286  -0.00095   0.00000  -0.00759  -0.00749   1.88537
   A24        1.87276   0.00052   0.00000   0.00490   0.00497   1.87774
   A25        1.89072  -0.00240   0.00000  -0.02165  -0.02163   1.86909
   A26        1.86359   0.00201   0.00000   0.01707   0.01708   1.88068
   A27        1.92080   0.00000   0.00000  -0.00088  -0.00087   1.91994
   A28        1.88443   0.00023   0.00000   0.00326   0.00328   1.88772
   A29        1.92163   0.00230   0.00000   0.01166   0.01169   1.93332
   A30        1.97976  -0.00223   0.00000  -0.01024  -0.01022   1.96955
   A31        1.99465   0.00147   0.00000   0.00583   0.00581   2.00047
   A32        2.18269  -0.00330   0.00000  -0.01300  -0.01302   2.16967
   A33        2.10580   0.00183   0.00000   0.00728   0.00725   2.11305
   A34        1.92347   0.00174   0.00000   0.00876   0.00878   1.93225
   A35        1.96062  -0.00277   0.00000  -0.01385  -0.01381   1.94682
   A36        1.92498   0.00219   0.00000   0.01231   0.01233   1.93731
   A37        1.87879   0.00092   0.00000   0.00794   0.00797   1.88676
   A38        1.89477  -0.00312   0.00000  -0.02535  -0.02534   1.86943
   A39        1.87919   0.00092   0.00000   0.00935   0.00939   1.88858
   A40        2.06721  -0.00168   0.00000  -0.01187  -0.01227   2.05494
   A41        2.22708  -0.00224   0.00000  -0.00989  -0.01030   2.21678
   A42        1.98876   0.00394   0.00000   0.02255   0.02213   2.01089
   A43        1.94447   0.00331   0.00000   0.01368   0.01370   1.95817
   A44        1.92607  -0.00264   0.00000  -0.02496  -0.02502   1.90105
   A45        1.92084  -0.00239   0.00000  -0.01471  -0.01491   1.90593
   A46        1.94666  -0.00053   0.00000  -0.00249  -0.00244   1.94421
   A47        1.88055   0.00061   0.00000   0.01711   0.01716   1.89771
   A48        1.84191   0.00155   0.00000   0.01189   0.01163   1.85355
    D1       -2.64266  -0.00174   0.00000  -0.05217  -0.05196  -2.69461
    D2        0.47839  -0.00076   0.00000   0.01016   0.00993   0.48831
    D3       -0.63957   0.00059   0.00000  -0.02160  -0.02135  -0.66092
    D4        2.48147   0.00157   0.00000   0.04073   0.04053   2.52200
[...]
                 (A) (A) (A) (A) (A) (A) (A) (A) (A) (A) (A) (A)
                 (A) (A) (A) (A) (A) (A) (A) (A) (A) (A) (A) (A)
                 (A) (A) (A) (A) (A) (A) (A) (A) (A) (A) (A) (A)
                 (A) (A) (A) (A) (A) (A) (A) (A) (A) (A) (A) (A)
                 (A) (A) (A) (A) (A) (A) (A) (A) (A) (A) (A) (A)
                 (A) (A) (A) (A) (A) (A) (A) (A) (A) (A) (A) (A)
                 (A) (A) (A) (A) (A) (A) (A) (A) (A) (A) (A) (A)
                 (A) (A) (A) (A) (A) (A) (A) (A) (A) (A) (A) (A)
                 (A) (A) (A) (A) (A) (A) (A) (A) (A) (A) (A) (A)
                 (A) (A) (A) (A) (A) (A) (A) (A) (A) (A) (A) (A)
                 (A) (A) (A) (A) (A) (A) (A) (A) (A) (A) (A) (A)
                 (A) (A) (A) (A) (A) (A) (A) (A) (A) (A) (A) (A)
                 (A) (A) (A) (A) (A) (A) (A) (A) (A) (A) (A) (A)
                 (A) (A) (A) (A) (A) (A) (A) (A) (A) (A) (A) (A)
                 (A) (A) (A) (A) (A) (A) (A) (A) (A)
 The electronic state is 1-A.
 Alpha  occ. eigenvalues --  -11.23020 -11.22460 -11.21868 -11.21730 -11.21712
 Alpha  occ. eigenvalues --  -11.21539 -11.21506 -11.21436 -11.21417 -11.21348
 Alpha  occ. eigenvalues --   -1.10821  -1.08492  -1.01823  -0.98143  -0.93838
 Alpha  occ. eigenvalues --   -0.91939  -0.86963  -0.82855  -0.70494  -0.69519
 Alpha  occ. eigenvalues --   -0.64988  -0.61512  -0.60591  -0.58878  -0.58366
 Alpha  occ. eigenvalues --   -0.56774  -0.55298  -0.54966  -0.53295  -0.52261
 Alpha  occ. eigenvalues --   -0.51859  -0.51173  -0.50832  -0.49581  -0.48519
 Alpha  occ. eigenvalues --   -0.46073  -0.44624  -0.33371  -0.31514
 Alpha virt. eigenvalues --    0.18142   0.19779   0.22152   0.24486   0.25192
 Alpha virt. eigenvalues --    0.27439   0.28535   0.28922   0.30318   0.30811
 Alpha virt. eigenvalues --    0.31477   0.32261   0.33202   0.33794   0.34383
 Alpha virt. eigenvalues --    0.35458   0.36114   0.36962   0.39185   0.40602
 Alpha virt. eigenvalues --    0.41328   0.42631   0.43685   0.44252   0.45395
 Alpha virt. eigenvalues --    0.51702   0.54378   0.61070   0.62576   0.70520
 Alpha virt. eigenvalues --    0.71073   0.72196   0.73768   0.76075   0.76177
 Alpha virt. eigenvalues --    0.76620   0.79010   0.79474   0.81070   0.82306
 Alpha virt. eigenvalues --    0.83713   0.85579   0.89117   0.91091   0.91343
 Alpha virt. eigenvalues --    0.92820   0.94745   0.97065   0.98284   0.98818
 Alpha virt. eigenvalues --    0.99710   1.00468   1.01911   1.03844   1.06577
 Alpha virt. eigenvalues --    1.08019   1.08221   1.09393   1.11664   1.12687
 Alpha virt. eigenvalues --    1.13026   1.13870   1.14856   1.15402   1.16045
 Alpha virt. eigenvalues --    1.16257   1.16619   1.18722   1.19116   1.20671
 Alpha virt. eigenvalues --    1.20953   1.23032   1.23885   1.25765   1.28153
 Alpha virt. eigenvalues --    1.34331   1.41722   1.42153   1.44890   1.46395
 Alpha virt. eigenvalues --    1.48456   1.54135   1.55360   1.57256   1.58165
 Alpha virt. eigenvalues --    1.61459   1.63397   1.66485   1.69046   1.69645
 Alpha virt. eigenvalues --    1.73917   1.82243   1.91111   1.93363   1.96231
 Alpha virt. eigenvalues --    1.98688   2.01467   2.02277   2.03942   2.08565
 Alpha virt. eigenvalues --    2.09706   2.10748   2.11744   2.13037   2.14903
 Alpha virt. eigenvalues --    2.15780   2.16940   2.19854   2.23666   2.28347
 Alpha virt. eigenvalues --    2.29590   2.30325   2.33235   2.35347   2.35688
 Alpha virt. eigenvalues --    2.35978   2.36098   2.38923   2.40264   2.41259
 Alpha virt. eigenvalues --    2.42195   2.43169   2.44154   2.45371   2.46084
 Alpha virt. eigenvalues --    2.47201   2.49167   2.49622   2.51174   2.54099
 Alpha virt. eigenvalues --    2.57315   2.58365   2.61888   2.63241   2.64107
 Alpha virt. eigenvalues --    2.67127   2.68175   2.71776   2.73352   2.73474
 Alpha virt. eigenvalues --    2.75815   2.77410   2.80796   2.82635   2.85354
 Alpha virt. eigenvalues --    2.87136   2.89441   2.92178   2.93739   2.94867
 Alpha virt. eigenvalues --    2.97869   2.99094   3.00960   3.02677   3.05807
 Alpha virt. eigenvalues --    3.06402   3.07703   3.09315   3.13762   3.17093
 Alpha virt. eigenvalues --    3.17589   3.19238   3.20046   3.21242   3.22334
 Alpha virt. eigenvalues --    3.24167   3.25050   3.26607   3.27420   3.37866
 Alpha virt. eigenvalues --    3.40355   3.46023   3.46902   3.56200   3.58183
 Alpha virt. eigenvalues --    3.59499   3.62406   3.67928   3.75494   3.78622
 Alpha virt. eigenvalues --    3.80005   3.81570   3.82569   3.83286   3.83898
 Alpha virt. eigenvalues --    3.84750   3.86481   3.87645   3.89820   3.91558
 Alpha virt. eigenvalues --    3.97645   4.59389   4.63170   4.74472   4.82572
 Alpha virt. eigenvalues --    4.88928   4.92582   4.93409   5.07840   5.10766
 Alpha virt. eigenvalues --    5.17766
          Condensed to atoms (all electrons):
               1          2          3          4          5          6
     1  C    5.004768   0.411714   0.414473   0.337355  -0.056085   0.000011
     2  H    0.411714   0.572983  -0.028295  -0.038988   0.003071  -0.000005
     3  H    0.414473  -0.028295   0.587507  -0.046308  -0.004587  -0.000489
     4  C    0.337355  -0.038988  -0.046308   4.952602   0.351934  -0.045679
     5  C   -0.056085   0.003071  -0.004587   0.351934   4.891804   0.400946
     6  H    0.000011  -0.000005  -0.000489  -0.045679   0.400946   0.596034
     7  H    0.003801  -0.000108   0.000106  -0.042765   0.407087  -0.027466
     8  H   -0.003698  -0.000034   0.002378  -0.041506   0.397495  -0.037541
     9  C   -0.047991  -0.001860   0.002531   0.697840  -0.046054  -0.001011
    10  H    0.003272   0.000031  -0.000118  -0.037842  -0.006525   0.000135
    11  C   -0.007749  -0.002811   0.000160  -0.050271   0.003364  -0.000101
    12  H    0.000152   0.000184   0.000017  -0.000627  -0.000106  -0.000004
    13  H    0.000310  -0.000067  -0.000013  -0.000247  -0.000095   0.000017
    14  H   -0.001745  -0.001657   0.000030  -0.000691   0.000109  -0.000003
    15  C    0.000587   0.000200  -0.000015  -0.000018  -0.000000  -0.000000
    16  H    0.000130  -0.000135  -0.000002  -0.000005   0.000000   0.000000
    17  H   -0.000040   0.000022   0.000000   0.000001  -0.000000  -0.000000
    18  H   -0.000302  -0.000131  -0.000016  -0.000011  -0.000000   0.000000
    19  C   -0.004325   0.001387   0.000787   0.000041  -0.000003   0.000000
    20  C   -0.000099  -0.000043  -0.000004   0.000001  -0.000000  -0.000000
    21  H   -0.000005   0.000002   0.000000   0.000000  -0.000000   0.000000
    22  H   -0.000003  -0.000002   0.000003   0.000000  -0.000000  -0.000000
    23  H    0.000024  -0.000007  -0.000002  -0.000000   0.000000   0.000000
    24  C   -0.061827  -0.000504  -0.000900   0.006443  -0.000149  -0.000111
    25  H    0.000175   0.000111   0.001011  -0.000152   0.000010   0.000015
    26  C    0.332330  -0.041801  -0.046074  -0.055544  -0.000661   0.000609
    27  H   -0.042369  -0.003118   0.004477  -0.001813   0.000243  -0.000015
    28  H   -0.046841   0.004515  -0.001931  -0.002075  -0.000289   0.000197
               7          8          9         10         11         12
     1  C    0.003801  -0.003698  -0.047991   0.003272  -0.007749   0.000152
     2  H   -0.000108  -0.000034  -0.001860   0.000031  -0.002811   0.000184
     3  H    0.000106   0.002378   0.002531  -0.000118   0.000160   0.000017
     4  C   -0.042765  -0.041506   0.697840  -0.037842  -0.050271  -0.000627
     5  C    0.407087   0.397495  -0.046054  -0.006525   0.003364  -0.000106
     6  H   -0.027466  -0.037541  -0.001011   0.000135  -0.000101  -0.000004
     7  H    0.568858  -0.026764  -0.002890   0.002385   0.000132  -0.000006
     8  H   -0.026764   0.591921  -0.000373   0.000216  -0.000105   0.000017
     9  C   -0.002890  -0.000373   4.938971   0.404494   0.340494  -0.041523
    10  H    0.002385   0.000216   0.404494   0.558671  -0.041278  -0.001122
    11  C    0.000132  -0.000105   0.340494  -0.041278   4.900974   0.401144
    12  H   -0.000006   0.000017  -0.041523  -0.001122   0.401144   0.583648
    13  H   -0.000006  -0.000004  -0.041805  -0.001264   0.402169  -0.035462
    14  H    0.000005   0.000002  -0.043903   0.003299   0.409079  -0.027132
    15  C   -0.000000   0.000000   0.000015  -0.000000  -0.000147   0.000004
    16  H   -0.000000  -0.000000   0.000000  -0.000000  -0.000009  -0.000000
    17  H    0.000000   0.000000   0.000000   0.000000   0.000003   0.000000
    18  H    0.000000  -0.000000  -0.000045   0.000000   0.000074  -0.000013
    19  C    0.000000   0.000000  -0.000001   0.000000   0.000013  -0.000000
    20  C    0.000000  -0.000000  -0.000000   0.000000  -0.000000   0.000000
    21  H    0.000000   0.000000   0.000000   0.000000   0.000000   0.000000
    22  H    0.000000  -0.000000  -0.000000   0.000000   0.000000  -0.000000
    23  H   -0.000000  -0.000000   0.000000  -0.000000  -0.000000  -0.000000
    24  C    0.000004   0.000004   0.000114   0.000002  -0.000031   0.000002
    25  H   -0.000000  -0.000001  -0.000002  -0.000000   0.000000   0.000000
    26  C   -0.000109   0.000086  -0.004911  -0.000113   0.000577  -0.000037
    27  H   -0.000005   0.000006   0.001406  -0.000046  -0.000082   0.000037
    28  H   -0.000050   0.000058   0.000760   0.000001  -0.000033  -0.000000
              13         14         15         16         17         18
     1  C    0.000310  -0.001745   0.000587   0.000130  -0.000040  -0.000302
     2  H   -0.000067  -0.001657   0.000200  -0.000135   0.000022  -0.000131
     3  H   -0.000013   0.000030  -0.000015  -0.000002   0.000000  -0.000016
     4  C   -0.000247  -0.000691  -0.000018  -0.000005   0.000001  -0.000011
     5  C   -0.000095   0.000109  -0.000000   0.000000  -0.000000  -0.000000
     6  H    0.000017  -0.000003  -0.000000   0.000000  -0.000000   0.000000
     7  H   -0.000006   0.000005  -0.000000  -0.000000   0.000000   0.000000
     8  H   -0.000004   0.000002   0.000000  -0.000000   0.000000  -0.000000
     9  C   -0.041805  -0.043903   0.000015   0.000000   0.000000  -0.000045
    10  H   -0.001264   0.003299  -0.000000  -0.000000   0.000000   0.000000
    11  C    0.402169   0.409079  -0.000147  -0.000009   0.000003   0.000074
    12  H   -0.035462  -0.027132   0.000004  -0.000000   0.000000  -0.000013
    13  H    0.586720  -0.029956  -0.000015   0.000000  -0.000000   0.000114
    14  H   -0.029956   0.577163  -0.000000   0.000079  -0.000008   0.000412
    15  C   -0.000015  -0.000000   4.907254   0.401208   0.399852   0.407154
    16  H    0.000000   0.000079   0.401208   0.587442  -0.035759  -0.028659
    17  H   -0.000000  -0.000008   0.399852  -0.035759   0.584669  -0.026060
    18  H    0.000114   0.000412   0.407154  -0.028659  -0.026060   0.568221
    19  C    0.000001  -0.000026   0.350332  -0.043385  -0.043537  -0.037848
    20  C   -0.000000   0.000000  -0.064931  -0.002632  -0.002223   0.003725
    21  H   -0.000000  -0.000000  -0.001201  -0.000476   0.002766  -0.000031
    22  H   -0.000000  -0.000000   0.003785  -0.000032  -0.000053  -0.000113
    23  H    0.000000  -0.000000  -0.001975   0.002756  -0.000456  -0.000068
    24  C   -0.000009   0.000026  -0.044248  -0.000031  -0.000365  -0.003253
    25  H    0.000000  -0.000002   0.003528  -0.000121  -0.000121   0.000061
    26  C    0.000163  -0.000737  -0.008144   0.000367   0.000117  -0.002069
    27  H   -0.000140  -0.000475  -0.002693  -0.000076   0.000113  -0.001675
    28  H   -0.000000  -0.000010   0.000195  -0.000014   0.000021   0.000058
              19         20         21         22         23         24
     1  C   -0.004325  -0.000099  -0.000005  -0.000003   0.000024  -0.061827
     2  H    0.001387  -0.000043   0.000002  -0.000002  -0.000007  -0.000504
     3  H    0.000787  -0.000004   0.000000   0.000003  -0.000002  -0.000900
     4  C    0.000041   0.000001   0.000000   0.000000  -0.000000   0.006443
     5  C   -0.000003  -0.000000  -0.000000  -0.000000   0.000000  -0.000149
     6  H    0.000000  -0.000000   0.000000  -0.000000   0.000000  -0.000111
     7  H    0.000000   0.000000   0.000000   0.000000  -0.000000   0.000004
     8  H    0.000000  -0.000000   0.000000  -0.000000  -0.000000   0.000004
     9  C   -0.000001  -0.000000   0.000000  -0.000000   0.000000   0.000114
    10  H    0.000000   0.000000   0.000000   0.000000  -0.000000   0.000002
    11  C    0.000013  -0.000000   0.000000   0.000000  -0.000000  -0.000031
    12  H   -0.000000   0.000000   0.000000  -0.000000  -0.000000   0.000002
    13  H    0.000001  -0.000000  -0.000000  -0.000000   0.000000  -0.000009
    14  H   -0.000026   0.000000  -0.000000  -0.000000  -0.000000   0.000026
    15  C    0.350332  -0.064931  -0.001201   0.003785  -0.001975  -0.044248
    16  H   -0.043385  -0.002632  -0.000476  -0.000032   0.002756  -0.000031
    17  H   -0.043537  -0.002223   0.002766  -0.000053  -0.000456  -0.000365
    18  H   -0.037848   0.003725  -0.000031  -0.000113  -0.000068  -0.003253
    19  C    4.914192   0.353753  -0.044274  -0.041639  -0.043899   0.697734
    20  C    0.353753   4.900112   0.398811   0.406218   0.398238  -0.044415
    21  H   -0.044274   0.398811   0.593607  -0.026549  -0.037806  -0.001270
    22  H   -0.041639   0.406218  -0.026549   0.566018  -0.026703  -0.002632
    23  H   -0.043899   0.398238  -0.037806  -0.026703   0.594542  -0.000422
    24  C    0.697734  -0.044415  -0.001270  -0.002632  -0.000422   4.962746
    25  H   -0.038449  -0.006963   0.000187   0.002335   0.000182   0.403391
    26  C   -0.050100   0.003126  -0.000131   0.000148  -0.000068   0.338699
    27  H    0.000438   0.000051   0.000007   0.000007  -0.000005  -0.044060
    28  H    0.001583  -0.000094   0.000009  -0.000010  -0.000002  -0.041395
              25         26         27         28
     1  C    0.000175   0.332330  -0.042369  -0.046841
     2  H    0.000111  -0.041801  -0.003118   0.004515
     3  H    0.001011  -0.046074   0.004477  -0.001931
     4  C   -0.000152  -0.055544  -0.001813  -0.002075
     5  C    0.000010  -0.000661   0.000243  -0.000289
     6  H    0.000015   0.000609  -0.000015   0.000197
     7  H   -0.000000  -0.000109  -0.000005  -0.000050
     8  H   -0.000001   0.000086   0.000006   0.000058
     9  C   -0.000002  -0.004911   0.001406   0.000760
    10  H   -0.000000  -0.000113  -0.000046   0.000001
    11  C    0.000000   0.000577  -0.000082  -0.000033
    12  H    0.000000  -0.000037   0.000037  -0.000000
    13  H    0.000000   0.000163  -0.000140  -0.000000
    14  H   -0.000002  -0.000737  -0.000475  -0.000010
    15  C    0.003528  -0.008144  -0.002693   0.000195
    16  H   -0.000121   0.000367  -0.000076  -0.000014
    17  H   -0.000121   0.000117   0.000113   0.000021
    18  H    0.000061  -0.002069  -0.001675   0.000058
    19  C   -0.038449  -0.050100   0.000438   0.001583
    20  C   -0.006963   0.003126   0.000051  -0.000094
    21  H    0.000187  -0.000131   0.000007   0.000009
    22  H    0.002335   0.000148   0.000007  -0.000010
    23  H    0.000182  -0.000068  -0.000005  -0.000002
    24  C    0.403391   0.338699  -0.044060  -0.041395
    25  H    0.557389  -0.039114   0.003152  -0.003424
    26  C   -0.039114   4.979543   0.415850   0.413482
    27  H    0.003152   0.415850   0.575347  -0.028362
    28  H   -0.003424   0.413482  -0.028362   0.585267
 Mulliken charges:
               1
     1  C   -0.236021
     2  H    0.125346
     3  H    0.115272
     4  C    0.018322
     5  C   -0.341505
     6  H    0.114461
     7  H    0.117792
     8  H    0.117845
     9  C   -0.154256
    10  H    0.115801
    11  C   -0.355567
    12  H    0.120829
    13  H    0.119588
    14  H    0.116140
    15  C   -0.350727
    16  H    0.119352
    17  H    0.121058
    18  H    0.120474
    19  C    0.027221
    20  C   -0.342631
    21  H    0.116356
    22  H    0.119222
    23  H    0.115672
    24  C   -0.163542
    25  H    0.116803
    26  C   -0.235486
    27  H    0.123802
    28  H    0.118380
 Sum of Mulliken charges =  -0.00000
 Mulliken charges with hydrogens summed into heavy atoms:
               1
     1  C    0.004596
     4  C    0.018322
     5  C    0.008593
     9  C   -0.038454
    11  C    0.000991
    15  C    0.010156
    19  C    0.027221
    20  C    0.008618
    24  C   -0.046739
    26  C    0.006696
 Electronic spatial extent (au):  <R**2>=           2384.0095
 Charge=             -0.0000 electrons
 Dipole moment (field-independent basis, Debye):
    X=              0.3027    Y=              0.1253    Z=              0.0460  Tot=              0.3308
 Quadrupole moment (field-independent basis, Debye-Ang):
   XX=            -64.3024   YY=            -63.2901   ZZ=            -67.3956
   XY=              0.7521   XZ=              1.2367   YZ=             -0.3487
 Traceless Quadrupole moment (field-independent basis, Debye-Ang):
   XX=              0.6937   YY=              1.7059   ZZ=             -2.3996
   XY=              0.7521   XZ=              1.2367   YZ=             -0.3487
 Octapole moment (field-independent basis, Debye-Ang**2):
  XXX=              2.6683  YYY=             -2.9989  ZZZ=              0.8999  XYY=             -0.6416
  XXY=              4.0909  XXZ=             -2.0919  XZZ=              1.2120  YZZ=              1.4955
  YYZ=              0.6111  XYZ=             -0.3642
 Hexadecapole moment (field-independent basis, Debye-Ang**3):
 XXXX=          -2435.7215 YYYY=           -693.4919 ZZZZ=           -166.6420 XXXY=              2.3047
 XXXZ=             14.7514 YYYX=            -11.0525 YYYZ=             -1.4216 ZZZX=              2.8118
 ZZZY=             -0.6410 XXYY=           -520.1255 XXZZ=           -449.2348 YYZZ=           -138.3649
 XXYZ=             -4.2785 YYXZ=              0.5786 ZZXY=              5.9188
 N-N= 5.190878296509D+02 E-N=-1.942888398212D+03  KE= 3.887471636580D+02
 No NMR shielding tensors so no spin-rotation constants.
 Leave Link  601 at Fri Sep 17 15:16:37 2021, MaxMem=   524288000 cpu:               0.2 elap:               0.4
 (Enter /opt/gaussian/g16_legacy/l9999.exe)
 1\1\GINC-TRUENO95\FOpt\RMP2-FC\6-31G(d,p)\C10H18\JRAMOS\17-Sep-2021\0\
 \#p opt mp2/6-31g(d,p)\\Conformer number 2667. Energy MM = 23.242 kcal
 /mol\\0,1\C,-0.5739777169,0.0645177602,-1.0176106937\H,-0.2026305836,-
 0.9526666406,-0.883622281\H,-0.2222569522,0.3910602759,-2.0005400366\C
 ,-2.08086087,0.1123733399,-0.9844106579\C,-2.7137543722,1.1930487564,-
 1.8180998791\H,-2.3176937899,2.1755326497,-1.5517570724\H,-3.79490799,
 1.2179240036,-1.6876881399\H,-2.4994981341,1.0411851447,-2.8782209767\
 C,-2.8326628492,-0.7083079181,-0.2272926793\H,-3.91039295,-0.573048154
 9,-0.2546022346\C,-2.3450972229,-1.8072642408,0.6674233731\H,-2.759003
 7898,-2.77087584,0.3642806078\H,-2.6633558737,-1.6350366253,1.69735305
 06\H,-1.2607560944,-1.8920437449,0.6660583807\C,2.0500597828,-0.763440
 9131,1.6921038179\H,2.4395083838,-1.7488252757,1.4271832549\H,2.489662
 0987,-0.4993910117,2.6565748902\H,0.9743823299,-0.8520933169,1.8217278
 219\C,2.4339519124,0.2437652425,0.6437591447\C,3.9130417723,0.36706886
 42,0.4018113754\H,4.4338809354,0.6546767722,1.3179460522\H,4.132717394
 4,1.110097448,-0.3633093321\H,4.3365748612,-0.5882210492,0.0836146358\
 C,1.5554321017,0.9979541285,-0.0433856497\H,1.956538113,1.675538218,-0
 .7929366724\C,0.0596517557,0.9620264487,0.0626089277\H,-0.2634455592,0
 .6082152635,1.042435152\H,-0.3351066931,1.9762304154,-0.0413041795\\Ve
 rsion=EM64L-G16RevA.03\State=1-A\HF=-389.1567535\MP2=-390.5738646\RMSD
 =5.118e-09\RMSF=3.201e-06\Dipole=0.0852288,-0.0544579,0.0573223\PG=C01
  [X(C10H18)]\\@


 EXPERIENCE IS THE FRUIT OF THE TREE OF ERRORS.
 Job cpu time:       0 days  0 hours 42 minutes 33.2 seconds.
 Elapsed time:       0 days  0 hours 42 minutes 40.0 seconds.
 File lengths (MBytes):  RWF=     32 Int=      0 D2E=      0 Chk=      7 Scr=      1
 Normal termination of Gaussian 16 at Fri Sep 17 15:16:38 2021.
