 Entering Gaussian System, Link 0=/opt/gaussian/g16_legacy/g16
 Input=01-IsoP_166_gaussian.com
 Output=01-IsoP_166_gaussian.log
 Initial command:
 /opt/gaussian/g16_legacy/l1.exe "/scratch-local/jramos/2661336/Gau-25050.inp" -scrdir="/scratch-local/jramos/2661336/"
 Entering Link 1 = /opt/gaussian/g16_legacy/l1.exe PID=     25062.
  
 Copyright (c) 1988,1990,1992,1993,1995,1998,2003,2009,2016,
            Gaussian, Inc.  All Rights Reserved.
  
 This is part of the Gaussian(R) 16 program.  It is based on
 the Gaussian(R) 09 system (copyright 2009, Gaussian, Inc.),
 the Gaussian(R) 03 system (copyright 2003, Gaussian, Inc.),
 the Gaussian(R) 98 system (copyright 1998, Gaussian, Inc.),
 the Gaussian(R) 94 system (copyright 1995, Gaussian, Inc.),
 the Gaussian 92(TM) system (copyright 1992, Gaussian, Inc.),
 the Gaussian 90(TM) system (copyright 1990, Gaussian, Inc.),
 the Gaussian 88(TM) system (copyright 1988, Gaussian, Inc.),
 the Gaussian 86(TM) system (copyright 1986, Carnegie Mellon
 University), and the Gaussian 82(TM) system (copyright 1983,
 Carnegie Mellon University). Gaussian is a federally registered
 trademark of Gaussian, Inc.
  
 This software contains proprietary and confidential information,
 including trade secrets, belonging to Gaussian, Inc.
  
 This software is provided under written license and may be
 used, copied, transmitted, or stored only in accord with that
 written license.
  
 The following legend is applicable only to US Government
 contracts under FAR:
  
                    RESTRICTED RIGHTS LEGEND
  
 Use, reproduction and disclosure by the US Government is
 subject to restrictions as set forth in subparagraphs (a)
 and (c) of the Commercial Computer Software - Restricted
 Rights clause in FAR 52.227-19.
  
 Gaussian, Inc.
 340 Quinnipiac St., Bldg. 40, Wallingford CT 06492
  
  
 ---------------------------------------------------------------
 Warning -- This program may not be used in any manner that
 competes with the business of Gaussian, Inc. or will provide
 assistance to any competitor of Gaussian, Inc.  The licensee
 of this program is prohibited from giving any competitor of
 Gaussian, Inc. access to this program.  By using this program,
 the user acknowledges that Gaussian, Inc. is engaged in the
 business of creating and licensing software in the field of
 computational chemistry and represents and warrants to the
 licensee that it is not a competitor of Gaussian, Inc. and that
 it will not use this program in any manner prohibited above.
 ---------------------------------------------------------------
  

 Cite this work as:
 Gaussian 16, Revision A.03,
 M. J. Frisch, G. W. Trucks, H. B. Schlegel, G. E. Scuseria, 
 M. A. Robb, J. R. Cheeseman, G. Scalmani, V. Barone, 
 G. A. Petersson, H. Nakatsuji, X. Li, M. Caricato, A. V. Marenich, 
 J. Bloino, B. G. Janesko, R. Gomperts, B. Mennucci, H. P. Hratchian, 
 J. V. Ortiz, A. F. Izmaylov, J. L. Sonnenberg, D. Williams-Young, 
 F. Ding, F. Lipparini, F. Egidi, J. Goings, B. Peng, A. Petrone, 
 T. Henderson, D. Ranasinghe, V. G. Zakrzewski, J. Gao, N. Rega, 
 G. Zheng, W. Liang, M. Hada, M. Ehara, K. Toyota, R. Fukuda, 
 J. Hasegawa, M. Ishida, T. Nakajima, Y. Honda, O. Kitao, H. Nakai, 
 T. Vreven, K. Throssell, J. A. Montgomery, Jr., J. E. Peralta, 
 F. Ogliaro, M. J. Bearpark, J. J. Heyd, E. N. Brothers, K. N. Kudin, 
 V. N. Staroverov, T. A. Keith, R. Kobayashi, J. Normand, 
 K. Raghavachari, A. P. Rendell, J. C. Burant, S. S. Iyengar, 
 J. Tomasi, M. Cossi, J. M. Millam, M. Klene, C. Adamo, R. Cammi, 
 J. W. Ochterski, R. L. Martin, K. Morokuma, O. Farkas, 
 J. B. Foresman, and D. J. Fox, Gaussian, Inc., Wallingford CT, 2016.
 
 ******************************************
 Gaussian 16:  EM64L-G16RevA.03 25-Dec-2016
                17-Sep-2021 
 ******************************************
 %chk=01-IsoP_166_gaussian.chk
 %nproc=1
 Will use up to    1 processors via shared memory.
 %mem=4000Mb
 ---------------------
 #p opt mp2/6-31g(d,p)
 ---------------------
 1/18=20,19=15,38=1/1,3;
 2/9=110,12=2,17=6,18=5,40=1/2;
 3/5=1,6=6,7=101,11=9,25=1,30=1,71=1/1,2,3;
 4//1;
 5/5=2,38=5/2;
 8/6=4,10=2/1;
 9/15=2,16=-3/6;
 10/5=1/2;
 6/7=2,8=2,9=2,10=2/1;
 7/12=2/1,2,3,16;
 1/18=20,19=15/3(2);
 2/9=110/2;
 99//99;
 2/9=110/2;
 3/5=1,6=6,7=101,11=9,25=1,30=1,71=1/1,2,3;
 4/5=5,16=3,69=1/1;
 5/5=2,38=5/2;
 8/6=4,10=2/1;
 9/15=2,16=-3/6;
 10/5=1/2;
 7/12=2/1,2,3,16;
 1/18=20,19=15/3(-8);
 2/9=110/2;
 6/7=2,8=2,9=2,10=2/1;
 99//99;
 Leave Link    1 at Fri Sep 17 13:32:35 2021, MaxMem=   524288000 cpu:               0.0 elap:               0.1
 (Enter /opt/gaussian/g16_legacy/l101.exe)
 -------------------------------------------------
 Conformer number 166. Energy MM = 23.242 kcal/mol
 -------------------------------------------------
 Symbolic Z-matrix:
 Charge =  0 Multiplicity = 1
 C                     0.9593   -0.4491    0.6249 
 H                     0.646     0.4514    1.1665 
 H                     1.0812   -1.2164    1.4013 
 C                     2.292    -0.2228   -0.0588 
 C                     3.1337   -1.4596   -0.2423 
 H                     4.0893   -1.2422   -0.7312 
 H                     3.3551   -1.9155    0.7282 
 H                     2.6064   -2.1933   -0.86 
 C                     2.7433    0.9798   -0.4672 
 H                     3.7285    1.0375   -0.9291 
 C                     2.0332    2.2941   -0.3863 
 H                     2.0336    2.7697   -1.3725 
 H                     0.9921    2.2081   -0.0677 
 H                     2.5553    2.9562    0.311 
 C                    -2.5943    1.0631   -0.299 
 H                    -2.9106    1.8175    0.4296 
 H                    -3.3233    1.0462   -1.1156 
 H                    -1.6388    1.4      -0.7072 
 C                    -2.5213   -0.2883    0.3568 
 C                    -3.7771   -0.6929    1.084 
 H                    -4.0026    0.0242    1.8801 
 H                    -3.6913   -1.6833    1.5433 
 H                    -4.6236   -0.721     0.39 
 C                    -1.4468   -1.1011    0.3371 
 H                    -1.5057   -2.0524    0.8662 
 C                    -0.1336   -0.8711   -0.3623 
 H                     0.1494   -1.8076   -0.8593 
 H                    -0.2293   -0.1311   -1.1636 
 
 ITRead=  0  0  0  0  0  0  0  0  0  0  0  0  0  0  0  0  0  0  0  0
 ITRead=  0  0  0  0  0  0  0  0
 MicOpt= -1 -1 -1 -1 -1 -1 -1 -1 -1 -1 -1 -1 -1 -1 -1 -1 -1 -1 -1 -1
 MicOpt= -1 -1 -1 -1 -1 -1 -1 -1
 NAtoms=     28 NQM=       28 NQMF=       0 NMMI=      0 NMMIF=      0
                NMic=       0 NMicF=      0.
                    Isotopes and Nuclear Properties:
 (Nuclear quadrupole moments (NQMom) in fm**2, nuclear magnetic moments (NMagM)
  in nuclear magnetons)

  Atom         1           2           3           4           5           6           7           8           9          10
 IAtWgt=          12           1           1          12          12           1           1           1          12           1
 AtmWgt=  12.0000000   1.0078250   1.0078250  12.0000000  12.0000000   1.0078250   1.0078250   1.0078250  12.0000000   1.0078250
 NucSpn=           0           1           1           0           0           1           1           1           0           1
 AtZEff=  -0.0000000  -0.0000000  -0.0000000  -0.0000000  -0.0000000  -0.0000000  -0.0000000  -0.0000000  -0.0000000  -0.0000000
 NQMom=    0.0000000   0.0000000   0.0000000   0.0000000   0.0000000   0.0000000   0.0000000   0.0000000   0.0000000   0.0000000
 NMagM=    0.0000000   2.7928460   2.7928460   0.0000000   0.0000000   2.7928460   2.7928460   2.7928460   0.0000000   2.7928460
 AtZNuc=   6.0000000   1.0000000   1.0000000   6.0000000   6.0000000   1.0000000   1.0000000   1.0000000   6.0000000   1.0000000

  Atom        11          12          13          14          15          16          17          18          19          20
 IAtWgt=          12           1           1           1          12           1           1           1          12          12
 AtmWgt=  12.0000000   1.0078250   1.0078250   1.0078250  12.0000000   1.0078250   1.0078250   1.0078250  12.0000000  12.0000000
 NucSpn=           0           1           1           1           0           1           1           1           0           0
 AtZEff=  -0.0000000  -0.0000000  -0.0000000  -0.0000000  -0.0000000  -0.0000000  -0.0000000  -0.0000000  -0.0000000  -0.0000000
 NQMom=    0.0000000   0.0000000   0.0000000   0.0000000   0.0000000   0.0000000   0.0000000   0.0000000   0.0000000   0.0000000
 NMagM=    0.0000000   2.7928460   2.7928460   2.7928460   0.0000000   2.7928460   2.7928460   2.7928460   0.0000000   0.0000000
 AtZNuc=   6.0000000   1.0000000   1.0000000   1.0000000   6.0000000   1.0000000   1.0000000   1.0000000   6.0000000   6.0000000

  Atom        21          22          23          24          25          26          27          28
 IAtWgt=           1           1           1          12           1          12           1           1
 AtmWgt=   1.0078250   1.0078250   1.0078250  12.0000000   1.0078250  12.0000000   1.0078250   1.0078250
 NucSpn=           1           1           1           0           1           0           1           1
 AtZEff=  -0.0000000  -0.0000000  -0.0000000  -0.0000000  -0.0000000  -0.0000000  -0.0000000  -0.0000000
 NQMom=    0.0000000   0.0000000   0.0000000   0.0000000   0.0000000   0.0000000   0.0000000   0.0000000
 NMagM=    2.7928460   2.7928460   2.7928460   0.0000000   2.7928460   0.0000000   2.7928460   2.7928460
 AtZNuc=   1.0000000   1.0000000   1.0000000   6.0000000   1.0000000   6.0000000   1.0000000   1.0000000
 Leave Link  101 at Fri Sep 17 13:32:35 2021, MaxMem=   524288000 cpu:               0.2 elap:               0.2
 (Enter /opt/gaussian/g16_legacy/l103.exe)

 GradGradGradGradGradGradGradGradGradGradGradGradGradGradGradGradGradGrad
 Berny optimization.
 Initialization pass.
                           ----------------------------
                           !    Initial Parameters    !
                           ! (Angstroms and Degrees)  !
 --------------------------                            --------------------------
 ! Name  Definition              Value          Derivative Info.                !
 --------------------------------------------------------------------------------
 ! R1    R(1,2)                  1.0965         estimate D2E/DX2                !
 ! R2    R(1,3)                  1.0984         estimate D2E/DX2                !
 ! R3    R(1,4)                  1.5148         estimate D2E/DX2                !
 ! R4    R(1,26)                 1.532          estimate D2E/DX2                !
 ! R5    R(4,5)                  1.5073         estimate D2E/DX2                !
 ! R6    R(4,9)                  1.3479         estimate D2E/DX2                !
 ! R7    R(5,6)                  1.0952         estimate D2E/DX2                !
 ! R8    R(5,7)                  1.0949         estimate D2E/DX2                !
 ! R9    R(5,8)                  1.0945         estimate D2E/DX2                !
 ! R10   R(9,10)                 1.0896         estimate D2E/DX2                !
 ! R11   R(9,11)                 1.4961         estimate D2E/DX2                !
 ! R12   R(11,12)                1.0949         estimate D2E/DX2                !
 ! R13   R(11,13)                1.0921         estimate D2E/DX2                !
 ! R14   R(11,14)                1.0942         estimate D2E/DX2                !
 ! R15   R(15,16)                1.0955         estimate D2E/DX2                !
 ! R16   R(15,17)                1.0948         estimate D2E/DX2                !
 ! R17   R(15,18)                1.0923         estimate D2E/DX2                !
 ! R18   R(15,19)                1.5039         estimate D2E/DX2                !
 ! R19   R(19,20)                1.5065         estimate D2E/DX2                !
 ! R20   R(19,24)                1.3474         estimate D2E/DX2                !
 ! R21   R(20,21)                1.0949         estimate D2E/DX2                !
 ! R22   R(20,22)                1.0951         estimate D2E/DX2                !
 ! R23   R(20,23)                1.095          estimate D2E/DX2                !
 ! R24   R(24,25)                1.0901         estimate D2E/DX2                !
 ! R25   R(24,26)                1.5055         estimate D2E/DX2                !
 ! R26   R(26,27)                1.0973         estimate D2E/DX2                !
 ! R27   R(26,28)                1.0949         estimate D2E/DX2                !
 ! A1    A(2,1,3)              104.8487         estimate D2E/DX2                !
 ! A2    A(2,1,4)              110.5855         estimate D2E/DX2                !
 ! A3    A(2,1,26)             109.9169         estimate D2E/DX2                !
 ! A4    A(3,1,4)              109.0114         estimate D2E/DX2                !
 ! A5    A(3,1,26)             110.0132         estimate D2E/DX2                !
 ! A6    A(4,1,26)             112.2047         estimate D2E/DX2                !
 ! A7    A(1,4,5)              115.0654         estimate D2E/DX2                !
 ! A8    A(1,4,9)              124.3754         estimate D2E/DX2                !
 ! A9    A(5,4,9)              120.5486         estimate D2E/DX2                !
 ! A10   A(4,5,6)              112.2542         estimate D2E/DX2                !
 ! A11   A(4,5,7)              110.285          estimate D2E/DX2                !
 ! A12   A(4,5,8)              110.4715         estimate D2E/DX2                !
 ! A13   A(6,5,7)              107.5724         estimate D2E/DX2                !
 ! A14   A(6,5,8)              107.5476         estimate D2E/DX2                !
 ! A15   A(7,5,8)              108.5754         estimate D2E/DX2                !
 ! A16   A(4,9,10)             118.5828         estimate D2E/DX2                !
 ! A17   A(4,9,11)             127.4831         estimate D2E/DX2                !
 ! A18   A(10,9,11)            113.9262         estimate D2E/DX2                !
 ! A19   A(9,11,12)            109.4345         estimate D2E/DX2                !
 ! A20   A(9,11,13)            113.5195         estimate D2E/DX2                !
 ! A21   A(9,11,14)            109.8513         estimate D2E/DX2                !
 ! A22   A(12,11,13)           107.2962         estimate D2E/DX2                !
 ! A23   A(12,11,14)           108.1195         estimate D2E/DX2                !
 ! A24   A(13,11,14)           108.4577         estimate D2E/DX2                !
 ! A25   A(16,15,17)           108.3288         estimate D2E/DX2                !
 ! A26   A(16,15,18)           106.7819         estimate D2E/DX2                !
 ! A27   A(16,15,19)           110.0485         estimate D2E/DX2                !
 ! A28   A(17,15,18)           107.969          estimate D2E/DX2                !
 ! A29   A(17,15,19)           110.1033         estimate D2E/DX2                !
 ! A30   A(18,15,19)           113.432          estimate D2E/DX2                !
 ! A31   A(15,19,20)           114.2908         estimate D2E/DX2                !
 ! A32   A(15,19,24)           125.0568         estimate D2E/DX2                !
 ! A33   A(20,19,24)           120.6496         estimate D2E/DX2                !
 ! A34   A(19,20,21)           110.2887         estimate D2E/DX2                !
 ! A35   A(19,20,22)           112.3362         estimate D2E/DX2                !
 ! A36   A(19,20,23)           110.2046         estimate D2E/DX2                !
 ! A37   A(21,20,22)           107.6684         estimate D2E/DX2                !
 ! A38   A(21,20,23)           108.5673         estimate D2E/DX2                !
 ! A39   A(22,20,23)           107.6492         estimate D2E/DX2                !
 ! A40   A(19,24,25)           118.4386         estimate D2E/DX2                !
 ! A41   A(19,24,26)           127.6051         estimate D2E/DX2                !
 ! A42   A(25,24,26)           113.9489         estimate D2E/DX2                !
 ! A43   A(1,26,24)            111.4062         estimate D2E/DX2                !
 ! A44   A(1,26,27)            110.057          estimate D2E/DX2                !
 ! A45   A(1,26,28)            110.3508         estimate D2E/DX2                !
 ! A46   A(24,26,27)           107.7571         estimate D2E/DX2                !
 ! A47   A(24,26,28)           111.5304         estimate D2E/DX2                !
 ! A48   A(27,26,28)           105.5379         estimate D2E/DX2                !
 ! D1    D(2,1,4,5)            151.4113         estimate D2E/DX2                !
 ! D2    D(2,1,4,9)            -27.4089         estimate D2E/DX2                !
 ! D3    D(3,1,4,5)             36.6431         estimate D2E/DX2                !
 ! D4    D(3,1,4,9)           -142.1771         estimate D2E/DX2                !
 ! D5    D(26,1,4,5)           -85.4717         estimate D2E/DX2                !
 ! D6    D(26,1,4,9)            95.7081         estimate D2E/DX2                !
 ! D7    D(2,1,26,24)          -56.9367         estimate D2E/DX2                !
 ! D8    D(2,1,26,27)         -176.3993         estimate D2E/DX2                !
 ! D9    D(2,1,26,28)           67.5238         estimate D2E/DX2                !
 ! D10   D(3,1,26,24)           58.0279         estimate D2E/DX2                !
 ! D11   D(3,1,26,27)          -61.4347         estimate D2E/DX2                !
 ! D12   D(3,1,26,28)         -177.5116         estimate D2E/DX2                !
 ! D13   D(4,1,26,24)          179.5708         estimate D2E/DX2                !
 ! D14   D(4,1,26,27)           60.1081         estimate D2E/DX2                !
 ! D15   D(4,1,26,28)          -55.9687         estimate D2E/DX2                !
 ! D16   D(1,4,5,6)           -179.434          estimate D2E/DX2                !
 ! D17   D(1,4,5,7)            -59.4985         estimate D2E/DX2                !
 ! D18   D(1,4,5,8)             60.5341         estimate D2E/DX2                !
 ! D19   D(9,4,5,6)             -0.5647         estimate D2E/DX2                !
 ! D20   D(9,4,5,7)            119.3708         estimate D2E/DX2                !
 ! D21   D(9,4,5,8)           -120.5966         estimate D2E/DX2                !
 ! D22   D(1,4,9,10)           178.597          estimate D2E/DX2                !
 ! D23   D(1,4,9,11)            -2.4931         estimate D2E/DX2                !
 ! D24   D(5,4,9,10)            -0.162          estimate D2E/DX2                !
 ! D25   D(5,4,9,11)           178.7479         estimate D2E/DX2                !
 ! D26   D(4,9,11,12)         -127.7504         estimate D2E/DX2                !
 ! D27   D(4,9,11,13)           -7.9224         estimate D2E/DX2                !
 ! D28   D(4,9,11,14)          113.6941         estimate D2E/DX2                !
 ! D29   D(10,9,11,12)          51.2024         estimate D2E/DX2                !
 ! D30   D(10,9,11,13)         171.0304         estimate D2E/DX2                !
 ! D31   D(10,9,11,14)         -67.3531         estimate D2E/DX2                !
 ! D32   D(16,15,19,20)         52.7889         estimate D2E/DX2                !
 ! D33   D(16,15,19,24)       -126.5998         estimate D2E/DX2                !
 ! D34   D(17,15,19,20)        -66.5545         estimate D2E/DX2                !
 ! D35   D(17,15,19,24)        114.0568         estimate D2E/DX2                !
 ! D36   D(18,15,19,20)        172.3361         estimate D2E/DX2                !
 ! D37   D(18,15,19,24)         -7.0526         estimate D2E/DX2                !
 ! D38   D(15,19,20,21)        -60.2593         estimate D2E/DX2                !
 ! D39   D(15,19,20,22)        179.6266         estimate D2E/DX2                !
 ! D40   D(15,19,20,23)         59.5947         estimate D2E/DX2                !
 ! D41   D(24,19,20,21)        119.159          estimate D2E/DX2                !
 ! D42   D(24,19,20,22)         -0.9551         estimate D2E/DX2                !
 ! D43   D(24,19,20,23)       -120.987          estimate D2E/DX2                !
 ! D44   D(15,19,24,25)        178.8386         estimate D2E/DX2                !
 ! D45   D(15,19,24,26)         -2.223          estimate D2E/DX2                !
 ! D46   D(20,19,24,25)         -0.5137         estimate D2E/DX2                !
 ! D47   D(20,19,24,26)        178.4246         estimate D2E/DX2                !
 ! D48   D(19,24,26,1)         103.3716         estimate D2E/DX2                !
 ! D49   D(19,24,26,27)       -135.809          estimate D2E/DX2                !
 ! D50   D(19,24,26,28)        -20.4229         estimate D2E/DX2                !
 ! D51   D(25,24,26,1)         -77.6499         estimate D2E/DX2                !
 ! D52   D(25,24,26,27)         43.1696         estimate D2E/DX2                !
 ! D53   D(25,24,26,28)        158.5557         estimate D2E/DX2                !
 --------------------------------------------------------------------------------
 Trust Radius=3.00D-01 FncErr=1.00D-07 GrdErr=1.00D-07 EigMax=2.50D+02 EigMin=1.00D-04
 Number of steps in this run=    138 maximum allowed number of steps=    168.
 GradGradGradGradGradGradGradGradGradGradGradGradGradGradGradGradGradGrad

 Leave Link  103 at Fri Sep 17 13:32:35 2021, MaxMem=   524288000 cpu:               0.0 elap:               0.0
 (Enter /opt/gaussian/g16_legacy/l202.exe)
                          Input orientation:                          
 ---------------------------------------------------------------------
 Center     Atomic      Atomic             Coordinates (Angstroms)
 Number     Number       Type             X           Y           Z
 ---------------------------------------------------------------------
      1          6           0        0.959300   -0.449100    0.624900
      2          1           0        0.646000    0.451400    1.166500
      3          1           0        1.081200   -1.216400    1.401300
      4          6           0        2.292000   -0.222800   -0.058800
      5          6           0        3.133700   -1.459600   -0.242300
      6          1           0        4.089300   -1.242200   -0.731200
      7          1           0        3.355100   -1.915500    0.728200
      8          1           0        2.606400   -2.193300   -0.860000
      9          6           0        2.743300    0.979800   -0.467200
     10          1           0        3.728500    1.037500   -0.929100
     11          6           0        2.033200    2.294100   -0.386300
     12          1           0        2.033600    2.769700   -1.372500
     13          1           0        0.992100    2.208100   -0.067700
     14          1           0        2.555300    2.956200    0.311000
     15          6           0       -2.594300    1.063100   -0.299000
     16          1           0       -2.910600    1.817500    0.429600
     17          1           0       -3.323300    1.046200   -1.115600
     18          1           0       -1.638800    1.400000   -0.707200
     19          6           0       -2.521300   -0.288300    0.356800
     20          6           0       -3.777100   -0.692900    1.084000
     21          1           0       -4.002600    0.024200    1.880100
     22          1           0       -3.691300   -1.683300    1.543300
     23          1           0       -4.623600   -0.721000    0.390000
     24          6           0       -1.446800   -1.101100    0.337100
     25          1           0       -1.505700   -2.052400    0.866200
     26          6           0       -0.133600   -0.871100   -0.362300
     27          1           0        0.149400   -1.807600   -0.859300
     28          1           0       -0.229300   -0.131100   -1.163600
 ---------------------------------------------------------------------
                    Distance matrix (angstroms):
                    1          2          3          4          5
     1  C    0.000000
     2  H    1.096534   0.000000
     3  H    1.098365   1.739565   0.000000
     4  C    1.514842   2.159912   2.141301   0.000000
     5  C    2.549738   3.438792   2.640705   1.507251   0.000000
     6  H    3.502130   4.280872   3.687396   2.172921   1.095197
     7  H    2.810846   3.624023   2.472332   2.148205   1.094867
     8  H    2.821365   3.865787   2.897248   2.150265   1.094493
     9  C    2.533198   2.710507   3.328237   1.347853   2.480658
    10  H    3.506189   3.773176   4.185574   2.099836   2.657252
    11  C    3.114632   2.780477   4.052830   2.551278   3.914345
    12  H    3.937563   3.707623   4.948740   3.278359   4.513818
    13  H    2.746176   2.174633   3.727345   2.756645   4.250760
    14  H    3.773833   3.263638   4.557666   3.211249   4.487759
    15  C    3.970946   3.608519   4.647197   5.058375   6.259170
    16  H    4.489069   3.880548   5.107173   5.609671   6.908285
    17  H    4.858593   4.617046   5.554617   5.853100   6.981013
    18  H    3.455978   3.103370   4.323161   4.301754   5.583028
    19  C    3.494612   3.351799   3.863982   4.831653   5.806022
    20  C    4.764840   4.569468   4.896714   6.193623   7.078563
    21  H    5.140038   4.722415   5.254842   6.591080   7.591642
    22  H    4.898448   4.848824   4.797386   6.363935   7.058260
    23  H    5.594451   5.454004   5.814885   6.948032   7.817994
    24  C    2.509432   2.734588   2.745287   3.860929   4.630897
    25  H    2.950427   3.314967   2.770790   4.315737   4.806685
    26  C    1.532018   2.166567   2.169160   2.529020   3.322045
    27  H    2.168942   3.074664   2.515568   2.782647   3.067220
    28  H    2.170858   2.556330   3.077986   2.754260   3.731417
                    6          7          8          9         10
     6  H    0.000000
     7  H    1.766984   0.000000
     8  H    1.766401   1.777668   0.000000
     9  C    2.611263   3.191558   3.200250   0.000000
    10  H    2.316543   3.406799   3.420812   1.089633   0.000000
    11  C    4.105109   4.550853   4.548594   1.496052   2.178926
    12  H    4.553297   5.301924   5.022163   2.127671   2.463698
    13  H    4.683743   4.818849   4.754579   2.176011   3.098419
    14  H    4.589760   4.954513   5.281212   2.132392   2.568201
    15  C    7.083199   6.732203   6.161667   5.340899   6.354170
    16  H    7.727084   7.299551   6.941677   5.785549   6.821445
    17  H    7.767315   7.534739   6.761733   6.101514   7.054271
    18  H    6.308163   6.163761   5.563890   4.408738   5.384102
    19  C    6.767104   6.108829   5.603832   5.477506   6.517000
    20  C    8.091782   7.244972   6.839547   6.907949   7.961211
    21  H    8.596598   7.695782   7.490283   7.206258   8.287840
    22  H    8.118230   7.097187   6.759954   7.248330   8.280637
    23  H    8.800191   8.074705   7.483520   7.609121   8.636546
    24  C    5.639998   4.886149   4.365132   4.746997   5.741133
    25  H    5.874703   4.864685   4.461949   5.387596   6.337778
    26  C    4.255195   3.801446   3.082778   3.422483   4.345093
    27  H    3.982323   3.578870   2.487089   3.827748   4.572682
    28  H    4.480158   4.428421   3.519380   3.248911   4.133376
                   11         12         13         14         15
    11  C    0.000000
    12  H    1.094891   0.000000
    13  H    1.092150   1.761426   0.000000
    14  H    1.094163   1.772322   1.773883   0.000000
    15  C    4.789232   5.048004   3.771842   5.520354   0.000000
    16  H    5.033289   5.347837   3.953599   5.584511   1.095456
    17  H    5.548083   5.633190   4.590292   6.343597   1.094789
    18  H    3.792885   3.975578   2.825530   4.587915   1.092295
    19  C    5.288143   5.752300   4.330842   6.025010   1.503890
    20  C    6.696532   7.196404   5.699779   7.349337   2.528881
    21  H    6.835195   7.385993   5.788814   7.352874   2.794834
    22  H    7.232770   7.817006   6.298615   7.878041   3.484278
    23  H    7.348908   7.720732   6.350213   8.066266   2.788511
    24  C    4.915393   5.478961   4.130726   5.699050   2.530838
    25  H    5.743225   6.386789   5.026235   6.471943   3.499869
    26  C    3.835895   4.355765   3.291726   4.725647   3.130524
    27  H    4.538323   4.976471   4.178830   5.463675   4.010330
    28  H    3.406567   3.684969   2.857389   4.411334   2.786911
                   16         17         18         19         20
    16  H    0.000000
    17  H    1.775632   0.000000
    18  H    1.756159   1.769041   0.000000
    19  C    2.142720   2.142908   2.182031   0.000000
    20  C    2.735173   2.840536   3.487256   1.506504   0.000000
    21  H    2.551929   3.237306   3.764903   2.147638   1.094924
    22  H    3.755718   3.828230   4.334080   2.173179   1.095085
    23  H    3.062665   2.660941   3.822502   2.146625   1.094983
    24  C    3.266419   3.200389   2.717154   1.347435   2.480884
    25  H    4.140107   4.102746   3.796363   2.098328   2.656113
    26  C    3.945555   3.797063   2.746357   2.560834   3.924109
    27  H    4.915914   4.502167   3.675526   3.304514   4.520661
    28  H    3.677594   3.310767   2.130554   2.754921   4.237241
                   21         22         23         24         25
    21  H    0.000000
    22  H    1.768021   0.000000
    23  H    1.778022   1.767853   0.000000
    24  C    3.190496   2.613744   3.199896   0.000000
    25  H    3.402171   2.317660   3.423550   1.090132   0.000000
    26  C    4.560601   4.116820   4.555062   1.505508   2.187999
    27  H    5.300840   4.531988   5.052027   2.116216   2.403463
    28  H    4.850363   4.660695   4.698034   2.162246   3.072569
                   26         27         28
    26  C    0.000000
    27  H    1.097329   0.000000
    28  H    1.094916   1.745470   0.000000
 Stoichiometry    C10H18
 Framework group  C1[X(C10H18)]
 Deg. of freedom    78
 Full point group                 C1      NOp   1
 Largest Abelian subgroup         C1      NOp   1
 Largest concise Abelian subgroup C1      NOp   1
                         Standard orientation:                         
 ---------------------------------------------------------------------
 Center     Atomic      Atomic             Coordinates (Angstroms)
 Number     Number       Type             X           Y           Z
 ---------------------------------------------------------------------
      1          6           0        0.793753   -0.586518    0.589187
      2          1           0        0.484630    0.235237    1.246111
      3          1           0        0.746040   -1.484377    1.220044
      4          6           0        2.220869   -0.386935    0.122012
      5          6           0        2.975641   -1.655045   -0.184620
      6          1           0        4.003270   -1.458162   -0.508151
      7          1           0        3.025326   -2.291683    0.704738
      8          1           0        2.478742   -2.212251   -0.984949
      9          6           0        2.820251    0.813968   -0.001605
     10          1           0        3.860379    0.846678   -0.324659
     11          6           0        2.215673    2.161843    0.234807
     12          1           0        2.388729    2.797236   -0.639900
     13          1           0        1.137470    2.131910    0.406194
     14          1           0        2.690784    2.635774    1.099013
     15          6           0       -2.465968    1.425927   -0.456135
     16          1           0       -2.815367    2.072735    0.356013
     17          1           0       -3.076400    1.626174   -1.342608
     18          1           0       -1.439605    1.725997   -0.678950
     19          6           0       -2.593395   -0.018206   -0.056227
     20          6           0       -3.965070   -0.407975    0.429720
     21          1           0       -4.237021    0.181176    1.311651
     22          1           0       -4.023674   -1.466056    0.705838
     23          1           0       -4.709062   -0.227468   -0.353146
     24          6           0       -1.596287   -0.923559   -0.097372
     25          1           0       -1.804032   -1.940181    0.236858
     26          6           0       -0.185993   -0.715609   -0.581502
     27          1           0        0.084218   -1.577121   -1.205131
     28          1           0       -0.111268    0.157045   -1.238565
 ---------------------------------------------------------------------
 Rotational constants (GHZ):           2.2180861           0.5802375           0.4854280
 Leave Link  202 at Fri Sep 17 13:32:35 2021, MaxMem=   524288000 cpu:               0.0 elap:               0.0
 (Enter /opt/gaussian/g16_legacy/l301.exe)
 Standard basis: 6-31G(d,p) (6D, 7F)
 Ernie: Thresh=  0.10000D-02 Tol=  0.10000D-05 Strict=F.
 There are   240 symmetry adapted cartesian basis functions of A   symmetry.
 There are   240 symmetry adapted basis functions of A   symmetry.
   240 basis functions,   406 primitive gaussians,   240 cartesian basis functions
    39 alpha electrons       39 beta electrons
       nuclear repulsion energy       516.4352814598 Hartrees.
 IExCor=    0 DFT=F Ex=HF Corr=None ExCW=0 ScaHFX=  1.000000
 ScaDFX=  1.000000  1.000000  1.000000  1.000000 ScalE2=  1.000000  1.000000
 IRadAn=      5 IRanWt=     -1 IRanGd=            0 ICorTp=0 IEmpDi=  4
 NAtoms=   28 NActive=   28 NUniq=   28 SFac= 1.00D+00 NAtFMM=   60 NAOKFM=F Big=F
 Integral buffers will be    131072 words long.
 Raffenetti 1 integral format.
 Two-electron integral symmetry is turned on.
 Leave Link  301 at Fri Sep 17 13:32:36 2021, MaxMem=   524288000 cpu:               0.1 elap:               0.1
 (Enter /opt/gaussian/g16_legacy/l302.exe)
 NPDir=0 NMtPBC=     1 NCelOv=     1 NCel=       1 NClECP=     1 NCelD=      1
         NCelK=      1 NCelE2=     1 NClLst=     1 CellRange=     0.0.
 One-electron integrals computed using PRISM.
 One-electron integral symmetry used in STVInt
 NBasis=   240 RedAO= T EigKep=  2.10D-03  NBF=   240
 NBsUse=   240 1.00D-06 EigRej= -1.00D+00 NBFU=   240
 Leave Link  302 at Fri Sep 17 13:32:36 2021, MaxMem=   524288000 cpu:               0.3 elap:               0.7
 (Enter /opt/gaussian/g16_legacy/l303.exe)
 DipDrv:  MaxL=1.
 Leave Link  303 at Fri Sep 17 13:32:37 2021, MaxMem=   524288000 cpu:               0.1 elap:               0.3
 (Enter /opt/gaussian/g16_legacy/l401.exe)
 ExpMin= 1.61D-01 ExpMax= 3.05D+03 ExpMxC= 4.57D+02 IAcc=3 IRadAn=         5 AccDes= 0.00D+00
 Harris functional with IExCor=  205 and IRadAn=       5 diagonalized for initial guess.
 HarFok:  IExCor=  205 AccDes= 0.00D+00 IRadAn=         5 IDoV= 1 UseB2=F ITyADJ=14
 ICtDFT=  3500011 ScaDFX=  1.000000  1.000000  1.000000  1.000000
 FoFCou: FMM=F IPFlag=           0 FMFlag=      100000 FMFlg1=           0
         NFxFlg=           0 DoJE=T BraDBF=F KetDBF=T FulRan=T
         wScrn=  0.000000 ICntrl=       500 IOpCl=  0 I1Cent=   200000004 NGrid=           0
         NMat0=    1 NMatS0=      1 NMatT0=    0 NMatD0=    1 NMtDS0=    0 NMtDT0=    0
 Petite list used in FoFCou.
 Harris En= -390.109896013770    
 JPrj=0 DoOrth=F DoCkMO=F.
 Leave Link  401 at Fri Sep 17 13:32:49 2021, MaxMem=   524288000 cpu:              11.1 elap:              12.2
 (Enter /opt/gaussian/g16_legacy/l502.exe)
 Keep R1 ints in memory in canonical form, NReq=425198025.
 FoFCou: FMM=F IPFlag=           0 FMFlag=           0 FMFlg1=           0
         NFxFlg=           0 DoJE=F BraDBF=F KetDBF=F FulRan=T
         wScrn=  0.000000 ICntrl=       600 IOpCl=  0 I1Cent=           0 NGrid=           0
         NMat0=    1 NMatS0=  28920 NMatT0=    0 NMatD0=    1 NMtDS0=    0 NMtDT0=    0
 Symmetry not used in FoFCou.
 Two-electron integral symmetry not used.
 Closed shell SCF:
 Using DIIS extrapolation, IDIIS=  1040.
 NGot=   524288000 LenX=   105970886 LenY=   105912845
 Requested convergence on RMS density matrix=1.00D-08 within 128 cycles.
 Requested convergence on MAX density matrix=1.00D-06.
 Requested convergence on             energy=1.00D-06.
 No special actions if energy rises.

 Cycle   1  Pass 1  IDiag  1:
 E= -388.533178638550    
 DIIS: error= 5.21D-02 at cycle   1 NSaved=   1.
 NSaved= 1 IEnMin= 1 EnMin= -388.533178638550     IErMin= 1 ErrMin= 5.21D-02
 ErrMax= 5.21D-02  0.00D+00 EMaxC= 1.00D-01 BMatC= 8.07D-01 BMatP= 8.07D-01
 IDIUse=3 WtCom= 4.79D-01 WtEn= 5.21D-01
 Coeff-Com:  0.100D+01
 Coeff-En:   0.100D+01
 Coeff:      0.100D+01
 Gap=     0.508 Goal=   None    Shift=    0.000
 GapD=    0.508 DampG=2.000 DampE=0.500 DampFc=1.0000 IDamp=-1.
 RMSDP=4.00D-03 MaxDP=1.14D-01              OVMax= 1.33D-01

 Cycle   2  Pass 1  IDiag  1:
 E= -389.073872782133     Delta-E=       -0.540694143583 Rises=F Damp=F
 DIIS: error= 1.59D-02 at cycle   2 NSaved=   2.
 NSaved= 2 IEnMin= 2 EnMin= -389.073872782133     IErMin= 2 ErrMin= 1.59D-02
 ErrMax= 1.59D-02  0.00D+00 EMaxC= 1.00D-01 BMatC= 8.66D-02 BMatP= 8.07D-01
 IDIUse=3 WtCom= 8.41D-01 WtEn= 1.59D-01
 Coeff-Com:  0.183D+00 0.817D+00
 Coeff-En:   0.000D+00 0.100D+01
 Coeff:      0.154D+00 0.846D+00
 Gap=     0.549 Goal=   None    Shift=    0.000
 RMSDP=1.63D-03 MaxDP=3.04D-02 DE=-5.41D-01 OVMax= 4.61D-02

 Cycle   3  Pass 1  IDiag  1:
 E= -389.151431230726     Delta-E=       -0.077558448593 Rises=F Damp=F
 DIIS: error= 3.43D-03 at cycle   3 NSaved=   3.
 NSaved= 3 IEnMin= 3 EnMin= -389.151431230726     IErMin= 3 ErrMin= 3.43D-03
 ErrMax= 3.43D-03  0.00D+00 EMaxC= 1.00D-01 BMatC= 3.14D-03 BMatP= 8.66D-02
 IDIUse=3 WtCom= 9.66D-01 WtEn= 3.43D-02
 Coeff-Com: -0.245D-01 0.106D+00 0.919D+00
 Coeff-En:   0.000D+00 0.000D+00 0.100D+01
 Coeff:     -0.236D-01 0.102D+00 0.921D+00
 Gap=     0.499 Goal=   None    Shift=    0.000
 RMSDP=2.59D-04 MaxDP=7.14D-03 DE=-7.76D-02 OVMax= 1.01D-02

 Cycle   4  Pass 1  IDiag  1:
 E= -389.155056713451     Delta-E=       -0.003625482725 Rises=F Damp=F
 DIIS: error= 5.31D-04 at cycle   4 NSaved=   4.
 NSaved= 4 IEnMin= 4 EnMin= -389.155056713451     IErMin= 4 ErrMin= 5.31D-04
 ErrMax= 5.31D-04  0.00D+00 EMaxC= 1.00D-01 BMatC= 9.28D-05 BMatP= 3.14D-03
 IDIUse=3 WtCom= 9.95D-01 WtEn= 5.31D-03
 Coeff-Com: -0.423D-02-0.190D-02 0.949D-01 0.911D+00
 Coeff-En:   0.000D+00 0.000D+00 0.000D+00 0.100D+01
 Coeff:     -0.421D-02-0.189D-02 0.944D-01 0.912D+00
 Gap=     0.499 Goal=   None    Shift=    0.000
 RMSDP=7.39D-05 MaxDP=1.49D-03 DE=-3.63D-03 OVMax= 3.14D-03

 Cycle   5  Pass 1  IDiag  1:
 E= -389.155181014734     Delta-E=       -0.000124301283 Rises=F Damp=F
 DIIS: error= 1.63D-04 at cycle   5 NSaved=   5.
 NSaved= 5 IEnMin= 5 EnMin= -389.155181014734     IErMin= 5 ErrMin= 1.63D-04
 ErrMax= 1.63D-04  0.00D+00 EMaxC= 1.00D-01 BMatC= 1.60D-05 BMatP= 9.28D-05
 IDIUse=3 WtCom= 9.98D-01 WtEn= 1.63D-03
 Coeff-Com:  0.241D-02-0.152D-01-0.102D+00 0.176D+00 0.939D+00
 Coeff-En:   0.000D+00 0.000D+00 0.000D+00 0.000D+00 0.100D+01
 Coeff:      0.241D-02-0.152D-01-0.102D+00 0.175D+00 0.939D+00
 Gap=     0.500 Goal=   None    Shift=    0.000
 RMSDP=3.00D-05 MaxDP=6.56D-04 DE=-1.24D-04 OVMax= 9.23D-04

 Cycle   6  Pass 1  IDiag  1:
 E= -389.155202491704     Delta-E=       -0.000021476970 Rises=F Damp=F
 DIIS: error= 3.58D-05 at cycle   6 NSaved=   6.
 NSaved= 6 IEnMin= 6 EnMin= -389.155202491704     IErMin= 6 ErrMin= 3.58D-05
 ErrMax= 3.58D-05  0.00D+00 EMaxC= 1.00D-01 BMatC= 5.50D-07 BMatP= 1.60D-05
 IDIUse=1 WtCom= 1.00D+00 WtEn= 0.00D+00
 Coeff-Com:  0.720D-03-0.335D-02-0.261D-01-0.433D-02 0.177D+00 0.856D+00
 Coeff:      0.720D-03-0.335D-02-0.261D-01-0.433D-02 0.177D+00 0.856D+00
 Gap=     0.500 Goal=   None    Shift=    0.000
 RMSDP=5.30D-06 MaxDP=1.61D-04 DE=-2.15D-05 OVMax= 3.24D-04

 Cycle   7  Pass 1  IDiag  1:
 E= -389.155203332856     Delta-E=       -0.000000841152 Rises=F Damp=F
 DIIS: error= 1.03D-05 at cycle   7 NSaved=   7.
 NSaved= 7 IEnMin= 7 EnMin= -389.155203332856     IErMin= 7 ErrMin= 1.03D-05
 ErrMax= 1.03D-05  0.00D+00 EMaxC= 1.00D-01 BMatC= 5.45D-08 BMatP= 5.50D-07
 IDIUse=1 WtCom= 1.00D+00 WtEn= 0.00D+00
 Coeff-Com: -0.494D-04 0.464D-03 0.301D-02-0.105D-01-0.468D-01 0.145D+00
 Coeff-Com:  0.909D+00
 Coeff:     -0.494D-04 0.464D-03 0.301D-02-0.105D-01-0.468D-01 0.145D+00
 Coeff:      0.909D+00
 Gap=     0.500 Goal=   None    Shift=    0.000
 RMSDP=1.71D-06 MaxDP=4.10D-05 DE=-8.41D-07 OVMax= 8.42D-05

 Cycle   8  Pass 1  IDiag  1:
 E= -389.155203421856     Delta-E=       -0.000000089000 Rises=F Damp=F
 DIIS: error= 3.51D-06 at cycle   8 NSaved=   8.
 NSaved= 8 IEnMin= 8 EnMin= -389.155203421856     IErMin= 8 ErrMin= 3.51D-06
 ErrMax= 3.51D-06  0.00D+00 EMaxC= 1.00D-01 BMatC= 5.10D-09 BMatP= 5.45D-08
 IDIUse=1 WtCom= 1.00D+00 WtEn= 0.00D+00
 Coeff-Com: -0.581D-04 0.249D-03 0.208D-02 0.315D-02-0.171D-01-0.804D-01
 Coeff-Com: -0.123D+00 0.121D+01
 Coeff:     -0.581D-04 0.249D-03 0.208D-02 0.315D-02-0.171D-01-0.804D-01
 Coeff:     -0.123D+00 0.121D+01
 Gap=     0.500 Goal=   None    Shift=    0.000
 RMSDP=7.86D-07 MaxDP=2.41D-05 DE=-8.90D-08 OVMax= 5.81D-05

 Cycle   9  Pass 1  IDiag  1:
 E= -389.155203437752     Delta-E=       -0.000000015896 Rises=F Damp=F
 DIIS: error= 1.46D-06 at cycle   9 NSaved=   9.
 NSaved= 9 IEnMin= 9 EnMin= -389.155203437752     IErMin= 9 ErrMin= 1.46D-06
 ErrMax= 1.46D-06  0.00D+00 EMaxC= 1.00D-01 BMatC= 7.39D-10 BMatP= 5.10D-09
 IDIUse=1 WtCom= 1.00D+00 WtEn= 0.00D+00
 Coeff-Com:  0.929D-05-0.690D-04-0.480D-03 0.144D-02 0.385D-02 0.897D-04
 Coeff-Com: -0.865D-01-0.120D+00 0.120D+01
 Coeff:      0.929D-05-0.690D-04-0.480D-03 0.144D-02 0.385D-02 0.897D-04
 Coeff:     -0.865D-01-0.120D+00 0.120D+01
 Gap=     0.500 Goal=   None    Shift=    0.000
 RMSDP=2.99D-07 MaxDP=1.24D-05 DE=-1.59D-08 OVMax= 2.71D-05

 Cycle  10  Pass 1  IDiag  1:
 E= -389.155203440161     Delta-E=       -0.000000002409 Rises=F Damp=F
 DIIS: error= 3.97D-07 at cycle  10 NSaved=  10.
 NSaved=10 IEnMin=10 EnMin= -389.155203440161     IErMin=10 ErrMin= 3.97D-07
 ErrMax= 3.97D-07  0.00D+00 EMaxC= 1.00D-01 BMatC= 1.21D-10 BMatP= 7.39D-10
 IDIUse=1 WtCom= 1.00D+00 WtEn= 0.00D+00
 Coeff-Com:  0.953D-05-0.464D-04-0.369D-03-0.135D-03 0.233D-02 0.142D-01
 Coeff-Com:  0.593D-02-0.211D+00 0.144D+00 0.105D+01
 Coeff:      0.953D-05-0.464D-04-0.369D-03-0.135D-03 0.233D-02 0.142D-01
 Coeff:      0.593D-02-0.211D+00 0.144D+00 0.105D+01
 Gap=     0.500 Goal=   None    Shift=    0.000
 RMSDP=1.24D-07 MaxDP=3.07D-06 DE=-2.41D-09 OVMax= 9.88D-06

 Cycle  11  Pass 1  IDiag  1:
 E= -389.155203440487     Delta-E=       -0.000000000325 Rises=F Damp=F
 DIIS: error= 1.55D-07 at cycle  11 NSaved=  11.
 NSaved=11 IEnMin=11 EnMin= -389.155203440487     IErMin=11 ErrMin= 1.55D-07
 ErrMax= 1.55D-07  0.00D+00 EMaxC= 1.00D-01 BMatC= 9.55D-12 BMatP= 1.21D-10
 IDIUse=1 WtCom= 1.00D+00 WtEn= 0.00D+00
 Coeff-Com:  0.395D-06 0.835D-06 0.973D-06-0.149D-03-0.305D-03 0.278D-02
 Coeff-Com:  0.110D-01-0.153D-01-0.107D+00 0.164D+00 0.945D+00
 Coeff:      0.395D-06 0.835D-06 0.973D-06-0.149D-03-0.305D-03 0.278D-02
 Coeff:      0.110D-01-0.153D-01-0.107D+00 0.164D+00 0.945D+00
 Gap=     0.500 Goal=   None    Shift=    0.000
 RMSDP=2.77D-08 MaxDP=1.16D-06 DE=-3.25D-10 OVMax= 2.51D-06

 Cycle  12  Pass 1  IDiag  1:
 E= -389.155203440502     Delta-E=       -0.000000000015 Rises=F Damp=F
 DIIS: error= 3.64D-08 at cycle  12 NSaved=  12.
 NSaved=12 IEnMin=12 EnMin= -389.155203440502     IErMin=12 ErrMin= 3.64D-08
 ErrMax= 3.64D-08  0.00D+00 EMaxC= 1.00D-01 BMatC= 1.17D-12 BMatP= 9.55D-12
 IDIUse=1 WtCom= 1.00D+00 WtEn= 0.00D+00
 Coeff-Com: -0.102D-05 0.547D-05 0.429D-04 0.322D-05-0.343D-03-0.126D-02
 Coeff-Com:  0.366D-03 0.217D-01-0.321D-01-0.113D+00 0.980D-01 0.103D+01
 Coeff:     -0.102D-05 0.547D-05 0.429D-04 0.322D-05-0.343D-03-0.126D-02
 Coeff:      0.366D-03 0.217D-01-0.321D-01-0.113D+00 0.980D-01 0.103D+01
 Gap=     0.500 Goal=   None    Shift=    0.000
 RMSDP=1.18D-08 MaxDP=3.33D-07 DE=-1.51D-11 OVMax= 8.46D-07

 Cycle  13  Pass 1  IDiag  1:
 E= -389.155203440509     Delta-E=       -0.000000000008 Rises=F Damp=F
 DIIS: error= 1.06D-08 at cycle  13 NSaved=  13.
 NSaved=13 IEnMin=13 EnMin= -389.155203440509     IErMin=13 ErrMin= 1.06D-08
 ErrMax= 1.06D-08  0.00D+00 EMaxC= 1.00D-01 BMatC= 5.47D-14 BMatP= 1.17D-12
 IDIUse=1 WtCom= 1.00D+00 WtEn= 0.00D+00
 Coeff-Com: -0.122D-06 0.462D-06 0.389D-05 0.136D-04-0.170D-04-0.298D-03
 Coeff-Com: -0.849D-03 0.352D-02 0.515D-02-0.212D-01-0.612D-01 0.111D+00
 Coeff-Com:  0.964D+00
 Coeff:     -0.122D-06 0.462D-06 0.389D-05 0.136D-04-0.170D-04-0.298D-03
 Coeff:     -0.849D-03 0.352D-02 0.515D-02-0.212D-01-0.612D-01 0.111D+00
 Coeff:      0.964D+00
 Gap=     0.500 Goal=   None    Shift=    0.000
 RMSDP=2.13D-09 MaxDP=7.03D-08 DE=-7.50D-12 OVMax= 1.05D-07

 SCF Done:  E(RHF) =  -389.155203441     A.U. after   13 cycles
            NFock= 13  Conv=0.21D-08     -V/T= 2.0014
 KE= 3.886259381506D+02 PE=-1.937504374050D+03 EE= 6.432879509992D+02
 Leave Link  502 at Fri Sep 17 13:33:27 2021, MaxMem=   524288000 cpu:              37.7 elap:              38.0
 (Enter /opt/gaussian/g16_legacy/l801.exe)
 ExpMin= 1.61D-01 ExpMax= 3.05D+03 ExpMxC= 4.57D+02 IAcc=3 IRadAn=         5 AccDes= 0.00D+00
 HarFok:  IExCor=  205 AccDes= 0.00D+00 IRadAn=         5 IDoV=-2 UseB2=F ITyADJ=14
 ICtDFT= 12500011 ScaDFX=  1.000000  1.000000  1.000000  1.000000
 Largest valence mixing into a core orbital is  1.98D-04
 Largest core mixing into a valence orbital is  3.52D-05
 Range of M.O.s used for correlation:    11   240
 NBasis=   240 NAE=    39 NBE=    39 NFC=    10 NFV=     0
 NROrb=    230 NOA=    29 NOB=    29 NVA=   201 NVB=   201
 Leave Link  801 at Fri Sep 17 13:33:29 2021, MaxMem=   524288000 cpu:               1.5 elap:               1.5
 (Enter /opt/gaussian/g16_legacy/l906.exe)
 Frozen-core derivative calculation, NFC=  10 NFV=   0.
 FulOut=F Deriv=T AODrv=T NAtomX=    28
   MMem=          88  MDisk=          29 MDiskD=          29
  W3Min=     2246400 MinDsk=     2795480 NBas6D=         240
 NBas2D=       29244    NTT=       28920    LW2=     2040000
    MDV=   523626386 MDiskM=       30186 NBas2p=       24383
 Fully direct method using O(ONN) memory.
 IMap=   1   2   3   4   5   6   7   8   9  10  11  12  13  14  15  16  17  18  19  20
 IMap=  21  22  23  24  25  26  27  28  29  30  31  32  33  34  35  36  37  38  39
 JobTyp=1 Pass  1:  I=  11 to  39 NPSUse=  1 ParTrn=F ParDer=F DoDerP=T.
 Spin components of T(2) and E(2):
     alpha-alpha T2 =       0.5715199395D-01 E2=     -0.1638033269D+00
     alpha-beta  T2 =       0.3618182569D+00 E2=     -0.1089340305D+01
     beta-beta   T2 =       0.5715199395D-01 E2=     -0.1638033269D+00
 The integrals were generated   1 times.
 ANorm=    0.1214957713D+01
 E2 =    -0.1416946958D+01 EUMP2 =    -0.39057215039892D+03
 Leave Link  906 at Fri Sep 17 13:38:09 2021, MaxMem=   524288000 cpu:             280.2 elap:             280.3
 (Enter /opt/gaussian/g16_legacy/l1002.exe)
 Minotr:  Closed shell wavefunction.
          Computing MP2/KS-MP2 derivatives.
          Using Z-Vector for PSCF gradient.
          Skipping F1 and S1 gradient terms here.
          IDoAtm=1111111111111111111111111111
          Frozen-core window.
          Direct CPHF calculation.
          Differentiating once with respect to electric field.
                with respect to dipole field.
          Differentiating once with respect to nuclear coordinates.
          Requested convergence is 1.0D-10 RMS, and 1.0D-09 maximum.
          NewPWx=F KeepS1=T KeepF1=T KeepIn=T MapXYZ=F SortEE=F KeepMc=T.
 Keep R1 ints in memory in canonical form, NReq=425201067.
 FoFCou: FMM=F IPFlag=           0 FMFlag=           0 FMFlg1=           0
         NFxFlg=           0 DoJE=F BraDBF=F KetDBF=F FulRan=T
         wScrn=  0.000000 ICntrl=       600 IOpCl=  0 I1Cent=           0 NGrid=           0
         NMat0=    1 NMatS0=  28920 NMatT0=    0 NMatD0=    1 NMtDS0=    0 NMtDT0=    0
 Symmetry not used in FoFCou.
 Two-electron integral symmetry not used.
          MDV=     524288000 using IRadAn=       5.
          Solving linear equations separately, MaxMat=       0.
          There are     1 degrees of freedom in the 1st order CPHF.  IDoFFX=0 NUNeed=     1.
 LinEq1:  Iter=  0 NonCon=     1 RMS=2.55D-03 Max=3.76D-02 NDo=     1
 AX will form     1 AO Fock derivatives at one time.
 LinEq1:  Iter=  1 NonCon=     1 RMS=6.90D-04 Max=9.74D-03 NDo=     1
 LinEq1:  Iter=  2 NonCon=     1 RMS=1.61D-04 Max=4.14D-03 NDo=     1
 LinEq1:  Iter=  3 NonCon=     1 RMS=4.31D-05 Max=5.07D-04 NDo=     1
 LinEq1:  Iter=  4 NonCon=     1 RMS=1.99D-05 Max=8.55D-04 NDo=     1
 LinEq1:  Iter=  5 NonCon=     1 RMS=5.06D-06 Max=8.27D-05 NDo=     1
 LinEq1:  Iter=  6 NonCon=     1 RMS=1.63D-06 Max=2.68D-05 NDo=     1
 LinEq1:  Iter=  7 NonCon=     1 RMS=4.13D-07 Max=4.19D-06 NDo=     1
 LinEq1:  Iter=  8 NonCon=     1 RMS=1.01D-07 Max=1.86D-06 NDo=     1
 LinEq1:  Iter=  9 NonCon=     1 RMS=2.33D-08 Max=6.32D-07 NDo=     1
 LinEq1:  Iter= 10 NonCon=     1 RMS=6.41D-09 Max=1.62D-07 NDo=     1
 LinEq1:  Iter= 11 NonCon=     1 RMS=1.89D-09 Max=3.62D-08 NDo=     1
 LinEq1:  Iter= 12 NonCon=     1 RMS=4.08D-10 Max=6.29D-09 NDo=     1
 LinEq1:  Iter= 13 NonCon=     1 RMS=1.01D-10 Max=1.19D-09 NDo=     1
 LinEq1:  Iter= 14 NonCon=     1 RMS=3.45D-11 Max=1.07D-09 NDo=     1
 LinEq1:  Iter= 15 NonCon=     0 RMS=1.01D-11 Max=1.47D-10 NDo=     1
 Linear equations converged to 1.000D-10 1.000D-09 after    15 iterations.
 End of Minotr F.D. properties file   721 does not exist.
 End of Minotr F.D. properties file   722 does not exist.
 End of Minotr F.D. properties file   788 does not exist.
 Leave Link 1002 at Fri Sep 17 13:38:51 2021, MaxMem=   524288000 cpu:              42.2 elap:              42.2
 (Enter /opt/gaussian/g16_legacy/l601.exe)
 Copying SCF densities to generalized density rwf, IOpCl= 0 IROHF=0.

 **********************************************************************

            Population analysis using the SCF density.

 **********************************************************************

 Orbital symmetries:
       Occupied  (A) (A) (A) (A) (A) (A) (A) (A) (A) (A) (A) (A)
                 (A) (A) (A) (A) (A) (A) (A) (A) (A) (A) (A) (A)
                 (A) (A) (A) (A) (A) (A) (A) (A) (A) (A) (A) (A)
                 (A) (A) (A)
       Virtual   (A) (A) (A) (A) (A) (A) (A) (A) (A) (A) (A) (A)
                 (A) (A) (A) (A) (A) (A) (A) (A) (A) (A) (A) (A)
                 (A) (A) (A) (A) (A) (A) (A) (A) (A) (A) (A) (A)
                 (A) (A) (A) (A) (A) (A) (A) (A) (A) (A) (A) (A)
                 (A) (A) (A) (A) (A) (A) (A) (A) (A) (A) (A) (A)
                 (A) (A) (A) (A) (A) (A) (A) (A) (A) (A) (A) (A)
                 (A) (A) (A) (A) (A) (A) (A) (A) (A) (A) (A) (A)
                 (A) (A) (A) (A) (A) (A) (A) (A) (A) (A) (A) (A)
                 (A) (A) (A) (A) (A) (A) (A) (A) (A) (A) (A) (A)
                 (A) (A) (A) (A) (A) (A) (A) (A) (A) (A) (A) (A)
                 (A) (A) (A) (A) (A) (A) (A) (A) (A) (A) (A) (A)
                 (A) (A) (A) (A) (A) (A) (A) (A) (A) (A) (A) (A)
                 (A) (A) (A) (A) (A) (A) (A) (A) (A) (A) (A) (A)
                 (A) (A) (A) (A) (A) (A) (A) (A) (A) (A) (A) (A)
                 (A) (A) (A) (A) (A) (A) (A) (A) (A) (A) (A) (A)
                 (A) (A) (A) (A) (A) (A) (A) (A) (A) (A) (A) (A)
                 (A) (A) (A) (A) (A) (A) (A) (A) (A)
 The electronic state is 1-A.
 Alpha  occ. eigenvalues --  -11.23060 -11.22506 -11.21999 -11.21921 -11.21884
 Alpha  occ. eigenvalues --  -11.21650 -11.21554 -11.21484 -11.21456 -11.21438
 Alpha  occ. eigenvalues --   -1.10623  -1.08326  -1.01912  -0.98013  -0.93647
 Alpha  occ. eigenvalues --   -0.91775  -0.86754  -0.82686  -0.70599  -0.69343
 Alpha  occ. eigenvalues --   -0.64585  -0.61545  -0.60102  -0.59030  -0.58087
 Alpha  occ. eigenvalues --   -0.56803  -0.55367  -0.55150  -0.53548  -0.51981
 Alpha  occ. eigenvalues --   -0.51716  -0.51321  -0.50591  -0.49228  -0.48277
 Alpha  occ. eigenvalues --   -0.46015  -0.44273  -0.33355  -0.31524
 Alpha virt. eigenvalues --    0.18455   0.19493   0.22038   0.24453   0.25183
 Alpha virt. eigenvalues --    0.27141   0.28394   0.28932   0.30249   0.30504
 Alpha virt. eigenvalues --    0.31237   0.32117   0.33135   0.33435   0.34031
 Alpha virt. eigenvalues --    0.35677   0.35775   0.36970   0.38999   0.40648
 Alpha virt. eigenvalues --    0.41064   0.42594   0.43321   0.44191   0.45150
 Alpha virt. eigenvalues --    0.51684   0.54046   0.61171   0.62443   0.70139
 Alpha virt. eigenvalues --    0.71102   0.71887   0.74281   0.76417   0.76615
 Alpha virt. eigenvalues --    0.76877   0.78795   0.79454   0.81139   0.82036
 Alpha virt. eigenvalues --    0.83811   0.85656   0.88079   0.91266   0.92026
 Alpha virt. eigenvalues --    0.92896   0.95178   0.97057   0.98263   0.99207
 Alpha virt. eigenvalues --    0.99751   1.00202   1.02303   1.03925   1.06182
 Alpha virt. eigenvalues --    1.07863   1.08638   1.08810   1.11198   1.12389
 Alpha virt. eigenvalues --    1.12561   1.13432   1.14581   1.14926   1.15819
 Alpha virt. eigenvalues --    1.16165   1.16403   1.18222   1.18704   1.20091
 Alpha virt. eigenvalues --    1.20662   1.22068   1.22853   1.25021   1.27540
 Alpha virt. eigenvalues --    1.34173   1.40671   1.41848   1.43738   1.45170
 Alpha virt. eigenvalues --    1.47559   1.53473   1.56256   1.56977   1.58247
 Alpha virt. eigenvalues --    1.59846   1.62723   1.65796   1.69518   1.70790
 Alpha virt. eigenvalues --    1.75331   1.82528   1.92031   1.92194   1.95497
 Alpha virt. eigenvalues --    1.98629   2.01126   2.02848   2.04186   2.08703
 Alpha virt. eigenvalues --    2.09245   2.11124   2.11379   2.13102   2.14504
 Alpha virt. eigenvalues --    2.15425   2.17688   2.19723   2.23578   2.27382
 Alpha virt. eigenvalues --    2.28337   2.29996   2.32202   2.34974   2.35567
 Alpha virt. eigenvalues --    2.35646   2.35783   2.39326   2.39849   2.40352
 Alpha virt. eigenvalues --    2.41282   2.41825   2.43040   2.45161   2.45390
 Alpha virt. eigenvalues --    2.47035   2.48343   2.49338   2.50339   2.54527
 Alpha virt. eigenvalues --    2.56588   2.57721   2.61275   2.62182   2.64355
 Alpha virt. eigenvalues --    2.66339   2.67159   2.72030   2.72995   2.73747
 Alpha virt. eigenvalues --    2.75718   2.77700   2.81091   2.82801   2.85161
 Alpha virt. eigenvalues --    2.87729   2.89152   2.91919   2.93443   2.94435
 Alpha virt. eigenvalues --    2.97092   2.99036   3.01166   3.02599   3.05099
 Alpha virt. eigenvalues --    3.05825   3.06633   3.08506   3.13015   3.15942
 Alpha virt. eigenvalues --    3.17138   3.18165   3.19615   3.20681   3.21269
 Alpha virt. eigenvalues --    3.23189   3.24414   3.26463   3.27246   3.36664
 Alpha virt. eigenvalues --    3.39073   3.44606   3.45619   3.55551   3.57296
 Alpha virt. eigenvalues --    3.58697   3.61053   3.66894   3.73958   3.78200
 Alpha virt. eigenvalues --    3.78868   3.80512   3.81327   3.82332   3.82838
 Alpha virt. eigenvalues --    3.84215   3.85753   3.87658   3.89512   3.91174
 Alpha virt. eigenvalues --    3.95901   4.59094   4.62632   4.74428   4.82817
 Alpha virt. eigenvalues --    4.88836   4.92667   4.93351   5.07549   5.10287
 Alpha virt. eigenvalues --    5.16870
          Condensed to atoms (all electrons):
               1          2          3          4          5          6
     1  C    5.001838   0.412354   0.413508   0.340276  -0.058751   0.003676
     2  H    0.412354   0.571671  -0.030228  -0.040534   0.003238  -0.000103
     3  H    0.413508  -0.030228   0.588493  -0.045057  -0.004692   0.000081
     4  C    0.340276  -0.040534  -0.045057   4.955133   0.349337  -0.041410
     5  C   -0.058751   0.003238  -0.004692   0.349337   4.896454   0.406172
     6  H    0.003676  -0.000103   0.000081  -0.041410   0.406172   0.571065
     7  H   -0.003552  -0.000016   0.002570  -0.043063   0.397382  -0.027616
     8  H   -0.000531  -0.000030  -0.000276  -0.045806   0.400281  -0.028075
     9  C   -0.044040  -0.002232   0.001917   0.698828  -0.045929  -0.002739
    10  H    0.003079   0.000060  -0.000114  -0.036528  -0.006481   0.002221
    11  C   -0.007061  -0.002134   0.000138  -0.050693   0.003424   0.000137
    12  H    0.000232  -0.000034  -0.000010   0.000593  -0.000100  -0.000009
    13  H   -0.001827  -0.001333   0.000004  -0.000421   0.000092   0.000004
    14  H    0.000227   0.000172   0.000028  -0.001411  -0.000116  -0.000004
    15  C    0.000597   0.000160  -0.000016  -0.000017  -0.000000  -0.000000
    16  H    0.000077  -0.000076  -0.000001  -0.000002   0.000000  -0.000000
    17  H   -0.000041   0.000014   0.000000   0.000001  -0.000000   0.000000
    18  H   -0.000053  -0.000052  -0.000012  -0.000027  -0.000000   0.000000
    19  C   -0.003608   0.001046   0.000615   0.000006  -0.000002   0.000000
    20  C   -0.000101  -0.000042  -0.000000   0.000002  -0.000000   0.000000
    21  H    0.000022  -0.000005  -0.000001  -0.000000   0.000000  -0.000000
    22  H   -0.000003  -0.000002   0.000002   0.000000  -0.000000   0.000000
    23  H   -0.000004   0.000001   0.000000   0.000000  -0.000000   0.000000
    24  C   -0.063080  -0.000806  -0.000607   0.006131  -0.000158   0.000003
    25  H    0.000004   0.000213   0.001003  -0.000155   0.000010  -0.000000
    26  C    0.326232  -0.039851  -0.044594  -0.057366  -0.000187  -0.000097
    27  H   -0.045134   0.004290  -0.002603  -0.001851  -0.000392  -0.000025
    28  H   -0.040296  -0.002143   0.004202  -0.001437   0.000317  -0.000010
               7          8          9         10         11         12
     1  C   -0.003552  -0.000531  -0.044040   0.003079  -0.007061   0.000232
     2  H   -0.000016  -0.000030  -0.002232   0.000060  -0.002134  -0.000034
     3  H    0.002570  -0.000276   0.001917  -0.000114   0.000138  -0.000010
     4  C   -0.043063  -0.045806   0.698828  -0.036528  -0.050693   0.000593
     5  C    0.397382   0.400281  -0.045929  -0.006481   0.003424  -0.000100
     6  H   -0.027616  -0.028075  -0.002739   0.002221   0.000137  -0.000009
     7  H    0.593614  -0.035011  -0.000427   0.000248  -0.000114  -0.000004
     8  H   -0.035011   0.594754  -0.001032   0.000123  -0.000100   0.000015
     9  C   -0.000427  -0.001032   4.939948   0.404879   0.337723  -0.042846
    10  H    0.000248   0.000123   0.404879   0.559320  -0.043627  -0.002646
    11  C   -0.000114  -0.000100   0.337723  -0.043627   4.906207   0.403000
    12  H   -0.000004   0.000015  -0.042846  -0.002646   0.403000   0.586840
    13  H   -0.000001   0.000000  -0.041935   0.003314   0.408033  -0.030017
    14  H    0.000021  -0.000005  -0.044358  -0.000221   0.400027  -0.033285
    15  C   -0.000000  -0.000000   0.000010  -0.000000  -0.000097  -0.000004
    16  H   -0.000000   0.000000   0.000000  -0.000000  -0.000003   0.000000
    17  H    0.000000   0.000000   0.000000   0.000000   0.000002  -0.000000
    18  H   -0.000000   0.000000  -0.000032   0.000000   0.000040   0.000042
    19  C    0.000000   0.000000   0.000001   0.000000   0.000007   0.000000
    20  C   -0.000000  -0.000000  -0.000000   0.000000  -0.000000  -0.000000
    21  H   -0.000000   0.000000  -0.000000  -0.000000   0.000000   0.000000
    22  H   -0.000000  -0.000000  -0.000000   0.000000   0.000000  -0.000000
    23  H    0.000000   0.000000   0.000000   0.000000  -0.000000  -0.000000
    24  C    0.000001  -0.000086   0.000070   0.000002  -0.000032  -0.000004
    25  H   -0.000002   0.000012  -0.000002  -0.000000   0.000000   0.000000
    26  C    0.000027   0.000810  -0.004365  -0.000116   0.000690   0.000091
    27  H    0.000093  -0.000187   0.000514   0.000004  -0.000030   0.000000
    28  H    0.000012  -0.000009   0.001215  -0.000044   0.000070  -0.000079
              13         14         15         16         17         18
     1  C   -0.001827   0.000227   0.000597   0.000077  -0.000041  -0.000053
     2  H   -0.001333   0.000172   0.000160  -0.000076   0.000014  -0.000052
     3  H    0.000004   0.000028  -0.000016  -0.000001   0.000000  -0.000012
     4  C   -0.000421  -0.001411  -0.000017  -0.000002   0.000001  -0.000027
     5  C    0.000092  -0.000116  -0.000000   0.000000  -0.000000  -0.000000
     6  H    0.000004  -0.000004  -0.000000  -0.000000   0.000000   0.000000
     7  H   -0.000001   0.000021  -0.000000  -0.000000   0.000000  -0.000000
     8  H    0.000000  -0.000005  -0.000000   0.000000   0.000000   0.000000
     9  C   -0.041935  -0.044358   0.000010   0.000000   0.000000  -0.000032
    10  H    0.003314  -0.000221  -0.000000  -0.000000   0.000000   0.000000
    11  C    0.408033   0.400027  -0.000097  -0.000003   0.000002   0.000040
    12  H   -0.030017  -0.033285  -0.000004   0.000000  -0.000000   0.000042
    13  H    0.573857  -0.026852   0.000010   0.000034  -0.000006   0.000570
    14  H   -0.026852   0.584258   0.000002  -0.000000   0.000000  -0.000008
    15  C    0.000010   0.000002   4.909228   0.402439   0.398271   0.406151
    16  H    0.000034  -0.000000   0.402439   0.586220  -0.033095  -0.030012
    17  H   -0.000006   0.000000   0.398271  -0.033095   0.582518  -0.026277
    18  H    0.000570  -0.000008   0.406151  -0.030012  -0.026277   0.568179
    19  C   -0.000013  -0.000000   0.348389  -0.043939  -0.043822  -0.037057
    20  C    0.000000   0.000000  -0.065368  -0.003431  -0.001684   0.003677
    21  H   -0.000000  -0.000000  -0.002139   0.002847  -0.000371  -0.000072
    22  H   -0.000000  -0.000000   0.003694   0.000010  -0.000079  -0.000108
    23  H   -0.000000   0.000000  -0.001104  -0.000507   0.002553  -0.000023
    24  C    0.000003   0.000002  -0.043323   0.000448  -0.000842  -0.002870
    25  H   -0.000001   0.000000   0.003365  -0.000110  -0.000126   0.000059
    26  C   -0.000212  -0.000050  -0.007534   0.000286   0.000188  -0.001944
    27  H   -0.000008  -0.000000   0.000169  -0.000012   0.000032   0.000031
    28  H   -0.000252   0.000023  -0.002065  -0.000043   0.000056  -0.001169
              19         20         21         22         23         24
     1  C   -0.003608  -0.000101   0.000022  -0.000003  -0.000004  -0.063080
     2  H    0.001046  -0.000042  -0.000005  -0.000002   0.000001  -0.000806
     3  H    0.000615  -0.000000  -0.000001   0.000002   0.000000  -0.000607
     4  C    0.000006   0.000002  -0.000000   0.000000   0.000000   0.006131
     5  C   -0.000002  -0.000000   0.000000  -0.000000  -0.000000  -0.000158
     6  H    0.000000   0.000000  -0.000000   0.000000   0.000000   0.000003
     7  H    0.000000  -0.000000  -0.000000  -0.000000   0.000000   0.000001
     8  H    0.000000  -0.000000   0.000000  -0.000000   0.000000  -0.000086
     9  C    0.000001  -0.000000  -0.000000  -0.000000   0.000000   0.000070
    10  H    0.000000   0.000000  -0.000000   0.000000   0.000000   0.000002
    11  C    0.000007  -0.000000   0.000000   0.000000  -0.000000  -0.000032
    12  H    0.000000  -0.000000   0.000000  -0.000000  -0.000000  -0.000004
    13  H   -0.000013   0.000000  -0.000000  -0.000000  -0.000000   0.000003
    14  H   -0.000000   0.000000  -0.000000  -0.000000   0.000000   0.000002
    15  C    0.348389  -0.065368  -0.002139   0.003694  -0.001104  -0.043323
    16  H   -0.043939  -0.003431   0.002847   0.000010  -0.000507   0.000448
    17  H   -0.043822  -0.001684  -0.000371  -0.000079   0.002553  -0.000842
    18  H   -0.037057   0.003677  -0.000072  -0.000108  -0.000023  -0.002870
    19  C    4.918251   0.352282  -0.044305  -0.040389  -0.045768   0.698174
    20  C    0.352282   4.903234   0.396988   0.405431   0.399260  -0.044863
    21  H   -0.044305   0.396988   0.594306  -0.027373  -0.034899  -0.000547
    22  H   -0.040389   0.405431  -0.027373   0.568017  -0.027562  -0.002386
    23  H   -0.045768   0.399260  -0.034899  -0.027562   0.593087  -0.001135
    24  C    0.698174  -0.044863  -0.000547  -0.002386  -0.001135   4.961523
    25  H   -0.036138  -0.006750   0.000235   0.002176   0.000150   0.402015
    26  C   -0.048265   0.003153  -0.000086   0.000146  -0.000124   0.339915
    27  H    0.000914  -0.000102  -0.000002  -0.000011   0.000012  -0.043341
    28  H    0.000822   0.000071  -0.000004   0.000006   0.000004  -0.043820
              25         26         27         28
     1  C    0.000004   0.326232  -0.045134  -0.040296
     2  H    0.000213  -0.039851   0.004290  -0.002143
     3  H    0.001003  -0.044594  -0.002603   0.004202
     4  C   -0.000155  -0.057366  -0.001851  -0.001437
     5  C    0.000010  -0.000187  -0.000392   0.000317
     6  H   -0.000000  -0.000097  -0.000025  -0.000010
     7  H   -0.000002   0.000027   0.000093   0.000012
     8  H    0.000012   0.000810  -0.000187  -0.000009
     9  C   -0.000002  -0.004365   0.000514   0.001215
    10  H   -0.000000  -0.000116   0.000004  -0.000044
    11  C    0.000000   0.000690  -0.000030   0.000070
    12  H    0.000000   0.000091   0.000000  -0.000079
    13  H   -0.000001  -0.000212  -0.000008  -0.000252
    14  H    0.000000  -0.000050  -0.000000   0.000023
    15  C    0.003365  -0.007534   0.000169  -0.002065
    16  H   -0.000110   0.000286  -0.000012  -0.000043
    17  H   -0.000126   0.000188   0.000032   0.000056
    18  H    0.000059  -0.001944   0.000031  -0.001169
    19  C   -0.036138  -0.048265   0.000914   0.000822
    20  C   -0.006750   0.003153  -0.000102   0.000071
    21  H    0.000235  -0.000086  -0.000002  -0.000004
    22  H    0.002176   0.000146  -0.000011   0.000006
    23  H    0.000150  -0.000124   0.000012   0.000004
    24  C    0.402015   0.339915  -0.043341  -0.043820
    25  H    0.558519  -0.041274  -0.003485   0.003231
    26  C   -0.041274   4.982299   0.413782   0.414883
    27  H   -0.003485   0.413782   0.588448  -0.029593
    28  H    0.003231   0.414883  -0.029593   0.571223
 Mulliken charges:
               1
     1  C   -0.234037
     2  H    0.126401
     3  H    0.115650
     4  C    0.015471
     5  C   -0.339899
     6  H    0.116728
     7  H    0.115837
     8  H    0.115153
     9  C   -0.155171
    10  H    0.116526
    11  C   -0.355607
    12  H    0.118225
    13  H    0.116956
    14  H    0.121551
    15  C   -0.350816
    16  H    0.118870
    17  H    0.122708
    18  H    0.120967
    19  C    0.022801
    20  C   -0.341756
    21  H    0.115407
    22  H    0.118430
    23  H    0.116062
    24  C   -0.160386
    25  H    0.117051
    26  C   -0.236437
    27  H    0.118487
    28  H    0.124828
 Sum of Mulliken charges =  -0.00000
 Mulliken charges with hydrogens summed into heavy atoms:
               1
     1  C    0.008014
     4  C    0.015471
     5  C    0.007818
     9  C   -0.038645
    11  C    0.001124
    15  C    0.011730
    19  C    0.022801
    20  C    0.008144
    24  C   -0.043335
    26  C    0.006878
 Electronic spatial extent (au):  <R**2>=           2423.6405
 Charge=              0.0000 electrons
 Dipole moment (field-independent basis, Debye):
    X=             -0.2950    Y=              0.1260    Z=             -0.0060  Tot=              0.3208
 Quadrupole moment (field-independent basis, Debye-Ang):
   XX=            -64.5128   YY=            -63.6029   ZZ=            -67.0542
   XY=             -0.6106   XZ=             -0.8620   YZ=             -0.4854
 Traceless Quadrupole moment (field-independent basis, Debye-Ang):
   XX=              0.5438   YY=              1.4537   ZZ=             -1.9975
   XY=             -0.6106   XZ=             -0.8620   YZ=             -0.4854
 Octapole moment (field-independent basis, Debye-Ang**2):
  XXX=             -1.3645  YYY=             -2.7224  ZZZ=              0.1846  XYY=              0.5702
  XXY=              4.5337  XXZ=             -2.6511  XZZ=             -1.5773  YZZ=              1.2272
  YYZ=              1.3701  XYZ=              0.7526
 Hexadecapole moment (field-independent basis, Debye-Ang**3):
 XXXX=          -2492.2816 YYYY=           -696.1173 ZZZZ=           -174.8274 XXXY=              2.3555
 XXXZ=            -11.9273 YYYX=              9.3554 YYYZ=             -3.0499 ZZZX=              0.8380
 ZZZY=             -0.0648 XXYY=           -530.4645 XXZZ=           -456.3115 YYZZ=           -139.1733
 XXYZ=             -4.2468 YYXZ=             -3.1941 ZZXY=             -4.7008
 N-N= 5.164352814598D+02 E-N=-1.937504374163D+03  KE= 3.886259381506D+02
 No NMR shielding tensors so no spin-rotation constants.
 Leave Link  601 at Fri Sep 17 13:38:52 2021, MaxMem=   524288000 cpu:               0.3 elap:               0.3
 (Enter /opt/gaussian/g16_legacy/l701.exe)
 ... and contract with generalized density number  2.
 Compute integral first derivatives.
 Leave Link  701 at Fri Sep 17 13:38:52 2021, MaxMem=   524288000 cpu:               0.3 elap:               0.3
 (Enter /opt/gaussian/g16_legacy/l702.exe)
 L702 exits ... SP integral derivatives will be done elsewhere.
 Leave Link  702 at Fri Sep 17 13:38:52 2021, MaxMem=   524288000 cpu:               0.0 elap:               0.1
 (Enter /opt/gaussian/g16_legacy/l703.exe)
 Integral derivatives from FoFJK, PRISM(SPDF).
 Compute integral first derivatives, UseDBF=F ICtDFT=           0.
 Calling FoFJK, ICntrl=  10002127 FMM=F ISym2X=0 I1Cent= 0 IOpClX= 0 NMat=1 NMatS=1 NMatT=0.
 FoFJK:  IHMeth= 1 ICntrl=10002127 DoSepK=F KAlg= 0 I1Cent=           0 FoldK=F
 IRaf=         0 NMat=       1 IRICut=       1 DoRegI=T DoRafI=F ISym2E= 0 IDoP0=0 IntGTp=1.
 FoFCou: FMM=F IPFlag=           0 FMFlag=      100000 FMFlg1=         800
         NFxFlg=           0 DoJE=F BraDBF=F KetDBF=F FulRan=T
         wScrn=  0.000000 ICntrl=  10002127 IOpCl=  0 I1Cent=           0 NGrid=           0
         NMat0=    1 NMatS0=      1 NMatT0=    0 NMatD0=    1 NMtDS0=    0 NMtDT0=    0
 Symmetry not used in FoFCou.
 Leave Link  703 at Fri Sep 17 13:39:25 2021, MaxMem=   524288000 cpu:              33.1 elap:              33.1
 (Enter /opt/gaussian/g16_legacy/l716.exe)
 Dipole        =-9.11494154D-02 6.68732173D-02-4.80247128D-03
 ***** Axes restored to original set *****
 -------------------------------------------------------------------
 Center     Atomic                   Forces (Hartrees/Bohr)
 Number     Number              X              Y              Z
 -------------------------------------------------------------------
      1        6           0.007048872    0.006250969    0.001201305
      2        1          -0.001055871   -0.001875953   -0.004137020
      3        1          -0.000834611    0.000101140   -0.003727605
      4        6           0.005066287   -0.000253768    0.004038046
      5        6           0.002575759    0.000756272   -0.001801696
      6        1          -0.003874153    0.000809952    0.001133809
      7        1          -0.001647570   -0.001294542   -0.002628160
      8        1           0.001262278   -0.000795551    0.003022343
      9        6          -0.002036775   -0.002726162   -0.001809759
     10        1          -0.001769897   -0.002900116    0.000999735
     11        6          -0.002082144    0.001701532    0.000076380
     12        1           0.000384484    0.000878319    0.003349805
     13        1           0.003145338   -0.001002227    0.000271941
     14        1          -0.002190864    0.001454477   -0.002203844
     15        6           0.003786254    0.001610309   -0.001963844
     16        1          -0.001658736   -0.002220417   -0.002429932
     17        1           0.000163969    0.002123464    0.002311080
     18        1          -0.002009141   -0.002750957    0.000596337
     19        6           0.001822121   -0.002935583    0.004108189
     20        6           0.000749693   -0.002767876    0.001770084
     21        1          -0.002220950   -0.000827228   -0.002612838
     22        1           0.001338281    0.003371439   -0.002378565
     23        1           0.000278119    0.001901875    0.002776107
     24        6           0.000796064   -0.002026011   -0.004770181
     25        1          -0.002197624    0.002599287    0.000354633
     26        6          -0.007615955   -0.001789811   -0.001094342
     27        1           0.001705442    0.002360596    0.001690114
     28        1           0.001071330    0.000246571    0.003857877
 -------------------------------------------------------------------
 Cartesian Forces:  Max     0.007615955 RMS     0.002573332
 Leave Link  716 at Fri Sep 17 13:39:25 2021, MaxMem=   524288000 cpu:               0.1 elap:               0.1
 (Enter /opt/gaussian/g16_legacy/l103.exe)

 GradGradGradGradGradGradGradGradGradGradGradGradGradGradGradGradGradGrad
 Berny optimization.
 FormGI is forming the generalized inverse of G from B-inverse, IUseBI=4.
 Internal  Forces:  Max     0.004893306 RMS     0.001918422
 Search for a local minimum.
 Step number   1 out of a maximum of  138
 All quantities printed in internal units (Hartrees-Bohrs-Radians)
 RMS Force = .19184D-02 SwitMx=.10000D-02 MixMth= 1
 Mixed Optimization -- RFO/linear search
 Second derivative matrix not updated -- first step.
 ITU=  0
     Eigenvalues ---    0.00342   0.00570   0.00670   0.00680   0.00693
     Eigenvalues ---    0.00714   0.00818   0.01218   0.01286   0.01569
     Eigenvalues ---    0.01641   0.02779   0.02784   0.04018   0.04139
     Eigenvalues ---    0.05349   0.05399   0.06978   0.07035   0.07090
     Eigenvalues ---    0.07092   0.07268   0.07301   0.07347   0.07505
     Eigenvalues ---    0.09276   0.09361   0.12766   0.12842   0.15999
     Eigenvalues ---    0.15999   0.16000   0.16000   0.16000   0.16000
     Eigenvalues ---    0.16000   0.16000   0.16000   0.16000   0.16000
     Eigenvalues ---    0.16000   0.16000   0.16000   0.21859   0.21866
     Eigenvalues ---    0.22000   0.22000   0.24994   0.24997   0.24998
     Eigenvalues ---    0.24999   0.29238   0.30869   0.31628   0.31704
     Eigenvalues ---    0.31806   0.31973   0.32795   0.33864   0.33979
     Eigenvalues ---    0.34068   0.34190   0.34219   0.34232   0.34243
     Eigenvalues ---    0.34250   0.34251   0.34253   0.34256   0.34265
     Eigenvalues ---    0.34299   0.34336   0.34549   0.34565   0.34797
     Eigenvalues ---    0.34855   0.55481   0.55571
 RFO step:  Lambda=-2.96252060D-03 EMin= 3.42414664D-03
 Linear search not attempted -- first point.
 Iteration  1 RMS(Cart)=  0.03971180 RMS(Int)=  0.00072410
 Iteration  2 RMS(Cart)=  0.00093682 RMS(Int)=  0.00016693
 Iteration  3 RMS(Cart)=  0.00000043 RMS(Int)=  0.00016693
 ITry= 1 IFail=0 DXMaxC= 1.73D-01 DCOld= 1.00D+10 DXMaxT= 3.00D-01 DXLimC= 3.00D+00 Rises=F
 Variable       Old X    -DE/DX   Delta X   Delta X   Delta X     New X
                                 (Linear)    (Quad)   (Total)
    R1        2.07215  -0.00328   0.00000  -0.00955  -0.00955   2.06260
    R2        2.07561  -0.00280   0.00000  -0.00819  -0.00819   2.06742
    R3        2.86264  -0.00354   0.00000  -0.01135  -0.01135   2.85128
    R4        2.89509   0.00172   0.00000   0.00584   0.00584   2.90093
    R5        2.84829  -0.00048   0.00000  -0.00149  -0.00149   2.84680
    R6        2.54707  -0.00405   0.00000  -0.00725  -0.00725   2.53982
    R7        2.06962  -0.00373   0.00000  -0.01079  -0.01079   2.05883
    R8        2.06900  -0.00212   0.00000  -0.00615  -0.00615   2.06285
    R9        2.06829  -0.00178   0.00000  -0.00515  -0.00515   2.06314
   R10        2.05911  -0.00218   0.00000  -0.00620  -0.00620   2.05291
   R11        2.82713   0.00310   0.00000   0.00936   0.00936   2.83649
   R12        2.06904  -0.00264   0.00000  -0.00763  -0.00763   2.06142
   R13        2.06386  -0.00284   0.00000  -0.00815  -0.00815   2.05572
   R14        2.06767  -0.00157   0.00000  -0.00453  -0.00453   2.06314
   R15        2.07011  -0.00267   0.00000  -0.00773  -0.00773   2.06238
   R16        2.06885  -0.00187   0.00000  -0.00540  -0.00540   2.06345
   R17        2.06414  -0.00283   0.00000  -0.00812  -0.00812   2.05602
   R18        2.84194  -0.00048   0.00000  -0.00148  -0.00148   2.84046
   R19        2.84688  -0.00079   0.00000  -0.00246  -0.00246   2.84442
   R20        2.54628  -0.00327   0.00000  -0.00585  -0.00585   2.54044
   R21        2.06911  -0.00198   0.00000  -0.00574  -0.00574   2.06336
   R22        2.06941  -0.00394   0.00000  -0.01142  -0.01142   2.05799
   R23        2.06922  -0.00202   0.00000  -0.00586  -0.00586   2.06336
   R24        2.06005  -0.00198   0.00000  -0.00563  -0.00563   2.05442
   R25        2.84500  -0.00149   0.00000  -0.00463  -0.00463   2.84037
   R26        2.07365  -0.00234   0.00000  -0.00683  -0.00683   2.06682
   R27        2.06909  -0.00275   0.00000  -0.00796  -0.00796   2.06113
    A1        1.82995   0.00207   0.00000   0.02245   0.02228   1.85223
    A2        1.93008   0.00043   0.00000   0.00933   0.00936   1.93944
    A3        1.91841  -0.00278   0.00000  -0.02025  -0.02029   1.89812
    A4        1.90261  -0.00069   0.00000  -0.00271  -0.00270   1.89991
    A5        1.92009  -0.00195   0.00000  -0.01728  -0.01731   1.90278
    A6        1.95834   0.00284   0.00000   0.00914   0.00918   1.96753
    A7        2.00827   0.00238   0.00000   0.00972   0.00915   2.01742
    A8        2.17076  -0.00489   0.00000  -0.01898  -0.01951   2.15125
    A9        2.10397   0.00253   0.00000   0.01037   0.00979   2.11376
   A10        1.95921  -0.00262   0.00000  -0.01304  -0.01301   1.94620
   A11        1.92484   0.00165   0.00000   0.00897   0.00899   1.93382
   A12        1.92809   0.00227   0.00000   0.01212   0.01214   1.94023
   A13        1.87749   0.00110   0.00000   0.01025   0.01028   1.88778
   A14        1.87706   0.00055   0.00000   0.00559   0.00563   1.88269
   A15        1.89500  -0.00307   0.00000  -0.02473  -0.02472   1.87028
   A16        2.06966  -0.00194   0.00000  -0.01336  -0.01338   2.05628
   A17        2.22500  -0.00186   0.00000  -0.00831  -0.00833   2.21667
   A18        1.98839   0.00380   0.00000   0.02184   0.02183   2.01021
   A19        1.90999   0.00238   0.00000   0.01563   0.01558   1.92557
   A20        1.98129  -0.00300   0.00000  -0.01848  -0.01839   1.96290
   A21        1.91727   0.00395   0.00000   0.02328   0.02325   1.94051
   A22        1.87267   0.00053   0.00000   0.00495   0.00502   1.87769
   A23        1.88704  -0.00309   0.00000  -0.01878  -0.01896   1.86808
   A24        1.89294  -0.00095   0.00000  -0.00767  -0.00757   1.88537
   A25        1.89069  -0.00241   0.00000  -0.02164  -0.02163   1.86907
   A26        1.86370   0.00200   0.00000   0.01698   0.01699   1.88069
   A27        1.92071   0.00002   0.00000  -0.00079  -0.00077   1.91994
   A28        1.88441   0.00024   0.00000   0.00328   0.00331   1.88772
   A29        1.92167   0.00230   0.00000   0.01164   0.01166   1.93332
   A30        1.97976  -0.00223   0.00000  -0.01024  -0.01022   1.96954
   A31        1.99475   0.00145   0.00000   0.00576   0.00574   2.00049
   A32        2.18265  -0.00329   0.00000  -0.01297  -0.01299   2.16967
   A33        2.10573   0.00184   0.00000   0.00732   0.00730   2.11303
   A34        1.92490   0.00221   0.00000   0.01238   0.01240   1.93731
   A35        1.96064  -0.00277   0.00000  -0.01388  -0.01385   1.94679
   A36        1.92343   0.00175   0.00000   0.00878   0.00880   1.93223
   A37        1.87917   0.00092   0.00000   0.00939   0.00943   1.88859
   A38        1.89486  -0.00313   0.00000  -0.02541  -0.02541   1.86945
   A39        1.87883   0.00092   0.00000   0.00791   0.00795   1.88678
   A40        2.06714  -0.00168   0.00000  -0.01183  -0.01224   2.05490
   A41        2.22713  -0.00225   0.00000  -0.00992  -0.01034   2.21679
   A42        1.98878   0.00394   0.00000   0.02256   0.02213   2.01092
   A43        1.94441   0.00332   0.00000   0.01373   0.01376   1.95816
   A44        1.92086  -0.00239   0.00000  -0.01475  -0.01495   1.90591
   A45        1.92598  -0.00264   0.00000  -0.02490  -0.02496   1.90102
   A46        1.88072   0.00060   0.00000   0.01697   0.01702   1.89773
   A47        1.94657  -0.00053   0.00000  -0.00240  -0.00234   1.94423
   A48        1.84198   0.00155   0.00000   0.01185   0.01158   1.85357
    D1        2.64262   0.00174   0.00000   0.05225   0.05204   2.69466
    D2       -0.47838   0.00076   0.00000  -0.01014  -0.00990  -0.48828
    D3        0.63954  -0.00059   0.00000   0.02165   0.02140   0.66095
    D4       -2.48146  -0.00157   0.00000  -0.04074  -0.04054  -2.52200
[...]
                 (A) (A) (A) (A) (A) (A) (A) (A) (A) (A) (A) (A)
                 (A) (A) (A) (A) (A) (A) (A) (A) (A) (A) (A) (A)
                 (A) (A) (A) (A) (A) (A) (A) (A) (A) (A) (A) (A)
                 (A) (A) (A) (A) (A) (A) (A) (A) (A) (A) (A) (A)
                 (A) (A) (A) (A) (A) (A) (A) (A) (A) (A) (A) (A)
                 (A) (A) (A) (A) (A) (A) (A) (A) (A) (A) (A) (A)
                 (A) (A) (A) (A) (A) (A) (A) (A) (A) (A) (A) (A)
                 (A) (A) (A) (A) (A) (A) (A) (A) (A) (A) (A) (A)
                 (A) (A) (A) (A) (A) (A) (A) (A) (A) (A) (A) (A)
                 (A) (A) (A) (A) (A) (A) (A) (A) (A) (A) (A) (A)
                 (A) (A) (A) (A) (A) (A) (A) (A) (A) (A) (A) (A)
                 (A) (A) (A) (A) (A) (A) (A) (A) (A) (A) (A) (A)
                 (A) (A) (A) (A) (A) (A) (A) (A) (A)
 The electronic state is 1-A.
 Alpha  occ. eigenvalues --  -11.23020 -11.22460 -11.21868 -11.21730 -11.21712
 Alpha  occ. eigenvalues --  -11.21539 -11.21506 -11.21436 -11.21417 -11.21348
 Alpha  occ. eigenvalues --   -1.10821  -1.08492  -1.01823  -0.98143  -0.93838
 Alpha  occ. eigenvalues --   -0.91939  -0.86963  -0.82855  -0.70494  -0.69519
 Alpha  occ. eigenvalues --   -0.64988  -0.61512  -0.60591  -0.58878  -0.58366
 Alpha  occ. eigenvalues --   -0.56774  -0.55298  -0.54966  -0.53295  -0.52261
 Alpha  occ. eigenvalues --   -0.51859  -0.51173  -0.50832  -0.49581  -0.48519
 Alpha  occ. eigenvalues --   -0.46073  -0.44624  -0.33371  -0.31514
 Alpha virt. eigenvalues --    0.18142   0.19779   0.22152   0.24486   0.25192
 Alpha virt. eigenvalues --    0.27439   0.28535   0.28922   0.30318   0.30811
 Alpha virt. eigenvalues --    0.31477   0.32261   0.33202   0.33794   0.34383
 Alpha virt. eigenvalues --    0.35458   0.36114   0.36962   0.39185   0.40602
 Alpha virt. eigenvalues --    0.41328   0.42631   0.43685   0.44253   0.45395
 Alpha virt. eigenvalues --    0.51702   0.54378   0.61070   0.62576   0.70520
 Alpha virt. eigenvalues --    0.71073   0.72196   0.73768   0.76075   0.76177
 Alpha virt. eigenvalues --    0.76620   0.79010   0.79474   0.81070   0.82306
 Alpha virt. eigenvalues --    0.83713   0.85579   0.89117   0.91091   0.91343
 Alpha virt. eigenvalues --    0.92820   0.94745   0.97065   0.98284   0.98818
 Alpha virt. eigenvalues --    0.99710   1.00468   1.01911   1.03844   1.06577
 Alpha virt. eigenvalues --    1.08019   1.08221   1.09393   1.11664   1.12687
 Alpha virt. eigenvalues --    1.13026   1.13870   1.14856   1.15402   1.16045
 Alpha virt. eigenvalues --    1.16257   1.16619   1.18722   1.19116   1.20671
 Alpha virt. eigenvalues --    1.20953   1.23032   1.23885   1.25765   1.28153
 Alpha virt. eigenvalues --    1.34331   1.41723   1.42153   1.44890   1.46395
 Alpha virt. eigenvalues --    1.48456   1.54136   1.55360   1.57256   1.58165
 Alpha virt. eigenvalues --    1.61459   1.63397   1.66485   1.69046   1.69645
 Alpha virt. eigenvalues --    1.73917   1.82243   1.91111   1.93363   1.96231
 Alpha virt. eigenvalues --    1.98688   2.01467   2.02277   2.03942   2.08565
 Alpha virt. eigenvalues --    2.09706   2.10748   2.11744   2.13037   2.14903
 Alpha virt. eigenvalues --    2.15780   2.16940   2.19854   2.23666   2.28347
 Alpha virt. eigenvalues --    2.29590   2.30325   2.33235   2.35347   2.35688
 Alpha virt. eigenvalues --    2.35978   2.36098   2.38923   2.40264   2.41259
 Alpha virt. eigenvalues --    2.42195   2.43169   2.44154   2.45371   2.46084
 Alpha virt. eigenvalues --    2.47201   2.49167   2.49622   2.51174   2.54099
 Alpha virt. eigenvalues --    2.57315   2.58365   2.61888   2.63241   2.64107
 Alpha virt. eigenvalues --    2.67127   2.68175   2.71776   2.73352   2.73474
 Alpha virt. eigenvalues --    2.75815   2.77410   2.80796   2.82634   2.85354
 Alpha virt. eigenvalues --    2.87137   2.89441   2.92178   2.93739   2.94867
 Alpha virt. eigenvalues --    2.97869   2.99094   3.00960   3.02677   3.05807
 Alpha virt. eigenvalues --    3.06402   3.07703   3.09315   3.13762   3.17093
 Alpha virt. eigenvalues --    3.17589   3.19238   3.20046   3.21242   3.22334
 Alpha virt. eigenvalues --    3.24167   3.25050   3.26607   3.27420   3.37866
 Alpha virt. eigenvalues --    3.40355   3.46023   3.46902   3.56200   3.58183
 Alpha virt. eigenvalues --    3.59499   3.62406   3.67928   3.75494   3.78622
 Alpha virt. eigenvalues --    3.80005   3.81570   3.82569   3.83286   3.83898
 Alpha virt. eigenvalues --    3.84750   3.86481   3.87645   3.89820   3.91558
 Alpha virt. eigenvalues --    3.97645   4.59389   4.63170   4.74472   4.82572
 Alpha virt. eigenvalues --    4.88928   4.92582   4.93409   5.07840   5.10766
 Alpha virt. eigenvalues --    5.17766
          Condensed to atoms (all electrons):
               1          2          3          4          5          6
     1  C    5.004768   0.411714   0.414473   0.337355  -0.056085   0.003801
     2  H    0.411714   0.572983  -0.028296  -0.038988   0.003071  -0.000108
     3  H    0.414473  -0.028296   0.587507  -0.046308  -0.004587   0.000106
     4  C    0.337355  -0.038988  -0.046308   4.952603   0.351934  -0.042765
     5  C   -0.056085   0.003071  -0.004587   0.351934   4.891804   0.407087
     6  H    0.003801  -0.000108   0.000106  -0.042765   0.407087   0.568858
     7  H   -0.003698  -0.000034   0.002378  -0.041506   0.397495  -0.026764
     8  H    0.000011  -0.000005  -0.000489  -0.045679   0.400946  -0.027466
     9  C   -0.047991  -0.001860   0.002531   0.697840  -0.046054  -0.002890
    10  H    0.003272   0.000031  -0.000118  -0.037842  -0.006525   0.002385
    11  C   -0.007749  -0.002811   0.000160  -0.050271   0.003364   0.000132
    12  H    0.000310  -0.000067  -0.000013  -0.000247  -0.000095  -0.000006
    13  H   -0.001745  -0.001657   0.000030  -0.000691   0.000109   0.000005
    14  H    0.000152   0.000184   0.000017  -0.000627  -0.000106  -0.000006
    15  C    0.000587   0.000200  -0.000015  -0.000018  -0.000000  -0.000000
    16  H    0.000130  -0.000135  -0.000002  -0.000005   0.000000  -0.000000
    17  H   -0.000040   0.000022   0.000000   0.000001  -0.000000   0.000000
    18  H   -0.000302  -0.000131  -0.000016  -0.000011  -0.000000   0.000000
    19  C   -0.004325   0.001388   0.000787   0.000041  -0.000003   0.000000
    20  C   -0.000099  -0.000043  -0.000004   0.000001  -0.000000   0.000000
    21  H    0.000024  -0.000007  -0.000002  -0.000000   0.000000  -0.000000
    22  H   -0.000003  -0.000002   0.000003   0.000000  -0.000000   0.000000
    23  H   -0.000005   0.000002   0.000000   0.000000  -0.000000   0.000000
    24  C   -0.061827  -0.000504  -0.000900   0.006443  -0.000149   0.000004
    25  H    0.000175   0.000111   0.001011  -0.000152   0.000010  -0.000000
    26  C    0.332330  -0.041801  -0.046074  -0.055544  -0.000661  -0.000109
    27  H   -0.046841   0.004515  -0.001931  -0.002075  -0.000289  -0.000050
    28  H   -0.042369  -0.003118   0.004477  -0.001813   0.000243  -0.000005
               7          8          9         10         11         12
     1  C   -0.003698   0.000011  -0.047991   0.003272  -0.007749   0.000310
     2  H   -0.000034  -0.000005  -0.001860   0.000031  -0.002811  -0.000067
     3  H    0.002378  -0.000489   0.002531  -0.000118   0.000160  -0.000013
     4  C   -0.041506  -0.045679   0.697840  -0.037842  -0.050271  -0.000247
     5  C    0.397495   0.400946  -0.046054  -0.006525   0.003364  -0.000095
     6  H   -0.026764  -0.027466  -0.002890   0.002385   0.000132  -0.000006
     7  H    0.591921  -0.037541  -0.000373   0.000216  -0.000105  -0.000004
     8  H   -0.037541   0.596034  -0.001011   0.000135  -0.000101   0.000017
     9  C   -0.000373  -0.001011   4.938971   0.404494   0.340494  -0.041805
    10  H    0.000216   0.000135   0.404494   0.558671  -0.041279  -0.001264
    11  C   -0.000105  -0.000101   0.340494  -0.041279   4.900974   0.402169
    12  H   -0.000004   0.000017  -0.041805  -0.001264   0.402169   0.586720
    13  H    0.000002  -0.000003  -0.043903   0.003299   0.409079  -0.029956
    14  H    0.000017  -0.000004  -0.041523  -0.001122   0.401144  -0.035462
    15  C    0.000000  -0.000000   0.000015  -0.000000  -0.000147  -0.000015
    16  H   -0.000000   0.000000   0.000000  -0.000000  -0.000009   0.000000
    17  H    0.000000  -0.000000   0.000000   0.000000   0.000003  -0.000000
    18  H   -0.000000   0.000000  -0.000045   0.000000   0.000074   0.000114
    19  C    0.000000   0.000000  -0.000001   0.000000   0.000013   0.000001
    20  C   -0.000000  -0.000000  -0.000000   0.000000  -0.000000  -0.000000
    21  H   -0.000000   0.000000   0.000000  -0.000000  -0.000000   0.000000
    22  H   -0.000000  -0.000000  -0.000000   0.000000   0.000000  -0.000000
    23  H    0.000000   0.000000   0.000000   0.000000   0.000000  -0.000000
    24  C    0.000004  -0.000111   0.000114   0.000002  -0.000031  -0.000009
    25  H   -0.000001   0.000015  -0.000002  -0.000000   0.000000   0.000000
    26  C    0.000086   0.000609  -0.004911  -0.000113   0.000577   0.000163
    27  H    0.000058   0.000197   0.000760   0.000001  -0.000033  -0.000000
    28  H    0.000006  -0.000015   0.001406  -0.000046  -0.000082  -0.000140
              13         14         15         16         17         18
     1  C   -0.001745   0.000152   0.000587   0.000130  -0.000040  -0.000302
     2  H   -0.001657   0.000184   0.000200  -0.000135   0.000022  -0.000131
     3  H    0.000030   0.000017  -0.000015  -0.000002   0.000000  -0.000016
     4  C   -0.000691  -0.000627  -0.000018  -0.000005   0.000001  -0.000011
     5  C    0.000109  -0.000106  -0.000000   0.000000  -0.000000  -0.000000
     6  H    0.000005  -0.000006  -0.000000  -0.000000   0.000000   0.000000
     7  H    0.000002   0.000017   0.000000  -0.000000   0.000000  -0.000000
     8  H   -0.000003  -0.000004  -0.000000   0.000000  -0.000000   0.000000
     9  C   -0.043903  -0.041523   0.000015   0.000000   0.000000  -0.000045
    10  H    0.003299  -0.001122  -0.000000  -0.000000   0.000000   0.000000
    11  C    0.409079   0.401144  -0.000147  -0.000009   0.000003   0.000074
    12  H   -0.029956  -0.035462  -0.000015   0.000000  -0.000000   0.000114
    13  H    0.577164  -0.027132  -0.000000   0.000079  -0.000008   0.000412
    14  H   -0.027132   0.583648   0.000004  -0.000000   0.000000  -0.000013
    15  C   -0.000000   0.000004   4.907254   0.401208   0.399852   0.407154
    16  H    0.000079  -0.000000   0.401208   0.587442  -0.035759  -0.028659
    17  H   -0.000008   0.000000   0.399852  -0.035759   0.584669  -0.026060
    18  H    0.000412  -0.000013   0.407154  -0.028659  -0.026060   0.568221
    19  C   -0.000026  -0.000000   0.350333  -0.043385  -0.043537  -0.037848
    20  C    0.000000   0.000000  -0.064931  -0.002632  -0.002223   0.003725
    21  H   -0.000000  -0.000000  -0.001975   0.002756  -0.000456  -0.000068
    22  H   -0.000000  -0.000000   0.003785  -0.000032  -0.000053  -0.000113
    23  H   -0.000000   0.000000  -0.001201  -0.000476   0.002766  -0.000031
    24  C    0.000026   0.000002  -0.044248  -0.000031  -0.000365  -0.003253
    25  H   -0.000002   0.000000   0.003528  -0.000121  -0.000121   0.000061
    26  C   -0.000737  -0.000037  -0.008144   0.000367   0.000117  -0.002069
    27  H   -0.000010  -0.000000   0.000195  -0.000014   0.000021   0.000058
    28  H   -0.000475   0.000037  -0.002693  -0.000076   0.000113  -0.001675
              19         20         21         22         23         24
     1  C   -0.004325  -0.000099   0.000024  -0.000003  -0.000005  -0.061827
     2  H    0.001388  -0.000043  -0.000007  -0.000002   0.000002  -0.000504
     3  H    0.000787  -0.000004  -0.000002   0.000003   0.000000  -0.000900
     4  C    0.000041   0.000001  -0.000000   0.000000   0.000000   0.006443
     5  C   -0.000003  -0.000000   0.000000  -0.000000  -0.000000  -0.000149
     6  H    0.000000   0.000000  -0.000000   0.000000   0.000000   0.000004
     7  H    0.000000  -0.000000  -0.000000  -0.000000   0.000000   0.000004
     8  H    0.000000  -0.000000   0.000000  -0.000000   0.000000  -0.000111
     9  C   -0.000001  -0.000000   0.000000  -0.000000   0.000000   0.000114
    10  H    0.000000   0.000000  -0.000000   0.000000   0.000000   0.000002
    11  C    0.000013  -0.000000  -0.000000   0.000000   0.000000  -0.000031
    12  H    0.000001  -0.000000   0.000000  -0.000000  -0.000000  -0.000009
    13  H   -0.000026   0.000000  -0.000000  -0.000000  -0.000000   0.000026
    14  H   -0.000000   0.000000  -0.000000  -0.000000   0.000000   0.000002
    15  C    0.350333  -0.064931  -0.001975   0.003785  -0.001201  -0.044248
    16  H   -0.043385  -0.002632   0.002756  -0.000032  -0.000476  -0.000031
    17  H   -0.043537  -0.002223  -0.000456  -0.000053   0.002766  -0.000365
    18  H   -0.037848   0.003725  -0.000068  -0.000113  -0.000031  -0.003253
    19  C    4.914192   0.353753  -0.043899  -0.041639  -0.044274   0.697734
    20  C    0.353753   4.900112   0.398238   0.406218   0.398811  -0.044415
    21  H   -0.043899   0.398238   0.594542  -0.026703  -0.037806  -0.000422
    22  H   -0.041639   0.406218  -0.026703   0.566018  -0.026549  -0.002632
    23  H   -0.044274   0.398811  -0.037806  -0.026549   0.593607  -0.001270
    24  C    0.697734  -0.044415  -0.000422  -0.002632  -0.001270   4.962747
    25  H   -0.038449  -0.006963   0.000182   0.002335   0.000187   0.403391
    26  C   -0.050100   0.003126  -0.000068   0.000148  -0.000131   0.338699
    27  H    0.001583  -0.000094  -0.000002  -0.000010   0.000009  -0.041394
    28  H    0.000438   0.000051  -0.000005   0.000007   0.000007  -0.044060
              25         26         27         28
     1  C    0.000175   0.332330  -0.046841  -0.042369
     2  H    0.000111  -0.041801   0.004515  -0.003118
     3  H    0.001011  -0.046074  -0.001931   0.004477
     4  C   -0.000152  -0.055544  -0.002075  -0.001813
     5  C    0.000010  -0.000661  -0.000289   0.000243
     6  H   -0.000000  -0.000109  -0.000050  -0.000005
     7  H   -0.000001   0.000086   0.000058   0.000006
     8  H    0.000015   0.000609   0.000197  -0.000015
     9  C   -0.000002  -0.004911   0.000760   0.001406
    10  H   -0.000000  -0.000113   0.000001  -0.000046
    11  C    0.000000   0.000577  -0.000033  -0.000082
    12  H    0.000000   0.000163  -0.000000  -0.000140
    13  H   -0.000002  -0.000737  -0.000010  -0.000475
    14  H    0.000000  -0.000037  -0.000000   0.000037
    15  C    0.003528  -0.008144   0.000195  -0.002693
    16  H   -0.000121   0.000367  -0.000014  -0.000076
    17  H   -0.000121   0.000117   0.000021   0.000113
    18  H    0.000061  -0.002069   0.000058  -0.001675
    19  C   -0.038449  -0.050100   0.001583   0.000438
    20  C   -0.006963   0.003126  -0.000094   0.000051
    21  H    0.000182  -0.000068  -0.000002  -0.000005
    22  H    0.002335   0.000148  -0.000010   0.000007
    23  H    0.000187  -0.000131   0.000009   0.000007
    24  C    0.403391   0.338699  -0.041394  -0.044060
    25  H    0.557389  -0.039113  -0.003424   0.003152
    26  C   -0.039113   4.979544   0.413482   0.415850
    27  H   -0.003424   0.413482   0.585267  -0.028362
    28  H    0.003152   0.415850  -0.028362   0.575347
 Mulliken charges:
               1
     1  C   -0.236021
     2  H    0.125346
     3  H    0.115272
     4  C    0.018322
     5  C   -0.341505
     6  H    0.117792
     7  H    0.117844
     8  H    0.114461
     9  C   -0.154256
    10  H    0.115801
    11  C   -0.355567
    12  H    0.119588
    13  H    0.116140
    14  H    0.120830
    15  C   -0.350727
    16  H    0.119352
    17  H    0.121058
    18  H    0.120474
    19  C    0.027222
    20  C   -0.342631
    21  H    0.115672
    22  H    0.119222
    23  H    0.116356
    24  C   -0.163542
    25  H    0.116803
    26  C   -0.235486
    27  H    0.118380
    28  H    0.123802
 Sum of Mulliken charges =  -0.00000
 Mulliken charges with hydrogens summed into heavy atoms:
               1
     1  C    0.004596
     4  C    0.018322
     5  C    0.008593
     9  C   -0.038454
    11  C    0.000991
    15  C    0.010156
    19  C    0.027222
    20  C    0.008618
    24  C   -0.046740
    26  C    0.006696
 Electronic spatial extent (au):  <R**2>=           2384.0065
 Charge=             -0.0000 electrons
 Dipole moment (field-independent basis, Debye):
    X=             -0.3027    Y=              0.1253    Z=              0.0460  Tot=              0.3308
 Quadrupole moment (field-independent basis, Debye-Ang):
   XX=            -64.3024   YY=            -63.2901   ZZ=            -67.3956
   XY=             -0.7521   XZ=             -1.2367   YZ=             -0.3487
 Traceless Quadrupole moment (field-independent basis, Debye-Ang):
   XX=              0.6937   YY=              1.7059   ZZ=             -2.3996
   XY=             -0.7521   XZ=             -1.2367   YZ=             -0.3487
 Octapole moment (field-independent basis, Debye-Ang**2):
  XXX=             -2.6682  YYY=             -2.9989  ZZZ=              0.8999  XYY=              0.6416
  XXY=              4.0909  XXZ=             -2.0918  XZZ=             -1.2120  YZZ=              1.4955
  YYZ=              0.6111  XYZ=              0.3641
 Hexadecapole moment (field-independent basis, Debye-Ang**3):
 XXXX=          -2435.7170 YYYY=           -693.4923 ZZZZ=           -166.6417 XXXY=             -2.3046
 XXXZ=            -14.7514 YYYX=             11.0526 YYYZ=             -1.4215 ZZZX=             -2.8119
 ZZZY=             -0.6411 XXYY=           -520.1247 XXZZ=           -449.2341 YYZZ=           -138.3649
 XXYZ=             -4.2785 YYXZ=             -0.5785 ZZXY=             -5.9188
 N-N= 5.190879708994D+02 E-N=-1.942888681121D+03  KE= 3.887471640741D+02
 No NMR shielding tensors so no spin-rotation constants.
 Leave Link  601 at Fri Sep 17 14:54:00 2021, MaxMem=   524288000 cpu:               0.3 elap:               0.3
 (Enter /opt/gaussian/g16_legacy/l9999.exe)
 1\1\GINC-TRUENO90\FOpt\RMP2-FC\6-31G(d,p)\C10H18\JRAMOS\17-Sep-2021\0\
 \#p opt mp2/6-31g(d,p)\\Conformer number 166. Energy MM = 23.242 kcal/
 mol\\0,1\C,0.9322501472,-0.4302362699,0.6146637175\H,0.5897378921,0.46
 72926861,1.1320055591\H,0.9919165319,-1.216019299,1.3732628073\C,2.292
 745178,-0.2275149503,-0.0034354082\C,3.1537267155,-1.4579655815,-0.093
 7313978\H,4.0872491921,-1.2559121048,-0.6174004933\H,3.3940300387,-1.8
 375712849,0.9017477886\H,2.6352857842,-2.2606135505,-0.6229311407\C,2.
 7144247229,0.9509656063,-0.4987350806\H,3.703043473,0.9840795402,-0.94
 82676549\C,1.9624294184,2.2472780711,-0.503112951\H,1.8283023776,2.611
 173005,-1.5235522978\H,0.9768369885,2.1558248356,-0.0523038114\H,2.511
 0979111,3.0193959725,0.0396193308\C,-2.5180677883,1.1247214691,-0.1540
 554901\H,-2.7174870517,1.810812305,0.671987384\H,-3.3225226314,1.26278
 64736,-0.8799807391\H,-1.5835594531,1.4252946172,-0.6210604907\C,-2.49
 53539277,-0.2934616539,0.345048183\C,-3.754655315,-0.736860892,1.03715
 10687\H,-3.9651797694,-0.1065388526,1.9040892516\H,-3.683213749,-1.769
 6477182,1.3747987363\H,-4.6149504898,-0.6537724615,0.3691069086\C,-1.4
 529513023,-1.1333112447,0.2007736942\H,-1.5502399878,-2.1292190645,0.6
 256682839\C,-0.1278300803,-0.8257097172,-0.431143879\H,0.2240597379,-1
 .7034250731,-0.9798067083\H,-0.2110245634,-0.021744863,-1.1635051704\\
 Version=EM64L-G16RevA.03\State=1-A\HF=-389.1567534\MP2=-390.5738646\RM
 SD=5.145e-09\RMSF=3.217e-06\Dipole=-0.0982879,0.0608121,0.0125241\PG=C
 01 [X(C10H18)]\\@


 CHINESE FORTUNE COOKIE OF JAN 1 1967 SAY....
 ALL THINGS ARE DIFFICULT BEFORE THEY ARE EASY.
 WE LEARN SO LITTLE AND FORGET SO MUCH.
 YOU WILL OVERCOME OBSTACLES TO ACHIEVE SUCCESS.
 AH SO.
 Job cpu time:       0 days  1 hours 21 minutes 17.4 seconds.
 Elapsed time:       0 days  1 hours 21 minutes 21.9 seconds.
 File lengths (MBytes):  RWF=     32 Int=      0 D2E=      0 Chk=      7 Scr=      1
 Normal termination of Gaussian 16 at Fri Sep 17 14:54:00 2021.
