 Entering Gaussian System, Link 0=/opt/gaussian/g16_legacy/g16
 Input=01-IsoP_2798_gaussian.com
 Output=01-IsoP_2798_gaussian.log
 Initial command:
 /opt/gaussian/g16_legacy/l1.exe "/scratch-local/jramos/2661377/Gau-1827.inp" -scrdir="/scratch-local/jramos/2661377/"
 Entering Link 1 = /opt/gaussian/g16_legacy/l1.exe PID=      1828.
  
 Copyright (c) 1988,1990,1992,1993,1995,1998,2003,2009,2016,
            Gaussian, Inc.  All Rights Reserved.
  
 This is part of the Gaussian(R) 16 program.  It is based on
 the Gaussian(R) 09 system (copyright 2009, Gaussian, Inc.),
 the Gaussian(R) 03 system (copyright 2003, Gaussian, Inc.),
 the Gaussian(R) 98 system (copyright 1998, Gaussian, Inc.),
 the Gaussian(R) 94 system (copyright 1995, Gaussian, Inc.),
 the Gaussian 92(TM) system (copyright 1992, Gaussian, Inc.),
 the Gaussian 90(TM) system (copyright 1990, Gaussian, Inc.),
 the Gaussian 88(TM) system (copyright 1988, Gaussian, Inc.),
 the Gaussian 86(TM) system (copyright 1986, Carnegie Mellon
 University), and the Gaussian 82(TM) system (copyright 1983,
 Carnegie Mellon University). Gaussian is a federally registered
 trademark of Gaussian, Inc.
  
 This software contains proprietary and confidential information,
 including trade secrets, belonging to Gaussian, Inc.
  
 This software is provided under written license and may be
 used, copied, transmitted, or stored only in accord with that
 written license.
  
 The following legend is applicable only to US Government
 contracts under FAR:
  
                    RESTRICTED RIGHTS LEGEND
  
 Use, reproduction and disclosure by the US Government is
 subject to restrictions as set forth in subparagraphs (a)
 and (c) of the Commercial Computer Software - Restricted
 Rights clause in FAR 52.227-19.
  
 Gaussian, Inc.
 340 Quinnipiac St., Bldg. 40, Wallingford CT 06492
  
  
 ---------------------------------------------------------------
 Warning -- This program may not be used in any manner that
 competes with the business of Gaussian, Inc. or will provide
 assistance to any competitor of Gaussian, Inc.  The licensee
 of this program is prohibited from giving any competitor of
 Gaussian, Inc. access to this program.  By using this program,
 the user acknowledges that Gaussian, Inc. is engaged in the
 business of creating and licensing software in the field of
 computational chemistry and represents and warrants to the
 licensee that it is not a competitor of Gaussian, Inc. and that
 it will not use this program in any manner prohibited above.
 ---------------------------------------------------------------
  

 Cite this work as:
 Gaussian 16, Revision A.03,
 M. J. Frisch, G. W. Trucks, H. B. Schlegel, G. E. Scuseria, 
 M. A. Robb, J. R. Cheeseman, G. Scalmani, V. Barone, 
 G. A. Petersson, H. Nakatsuji, X. Li, M. Caricato, A. V. Marenich, 
 J. Bloino, B. G. Janesko, R. Gomperts, B. Mennucci, H. P. Hratchian, 
 J. V. Ortiz, A. F. Izmaylov, J. L. Sonnenberg, D. Williams-Young, 
 F. Ding, F. Lipparini, F. Egidi, J. Goings, B. Peng, A. Petrone, 
 T. Henderson, D. Ranasinghe, V. G. Zakrzewski, J. Gao, N. Rega, 
 G. Zheng, W. Liang, M. Hada, M. Ehara, K. Toyota, R. Fukuda, 
 J. Hasegawa, M. Ishida, T. Nakajima, Y. Honda, O. Kitao, H. Nakai, 
 T. Vreven, K. Throssell, J. A. Montgomery, Jr., J. E. Peralta, 
 F. Ogliaro, M. J. Bearpark, J. J. Heyd, E. N. Brothers, K. N. Kudin, 
 V. N. Staroverov, T. A. Keith, R. Kobayashi, J. Normand, 
 K. Raghavachari, A. P. Rendell, J. C. Burant, S. S. Iyengar, 
 J. Tomasi, M. Cossi, J. M. Millam, M. Klene, C. Adamo, R. Cammi, 
 J. W. Ochterski, R. L. Martin, K. Morokuma, O. Farkas, 
 J. B. Foresman, and D. J. Fox, Gaussian, Inc., Wallingford CT, 2016.
 
 ******************************************
 Gaussian 16:  EM64L-G16RevA.03 25-Dec-2016
                17-Sep-2021 
 ******************************************
 %chk=01-IsoP_2798_gaussian.chk
 %nproc=1
 Will use up to    1 processors via shared memory.
 %mem=4000Mb
 ---------------------
 #p opt mp2/6-31g(d,p)
 ---------------------
 1/18=20,19=15,38=1/1,3;
 2/9=110,12=2,17=6,18=5,40=1/2;
 3/5=1,6=6,7=101,11=9,25=1,30=1,71=1/1,2,3;
 4//1;
 5/5=2,38=5/2;
 8/6=4,10=2/1;
 9/15=2,16=-3/6;
 10/5=1/2;
 6/7=2,8=2,9=2,10=2/1;
 7/12=2/1,2,3,16;
 1/18=20,19=15/3(2);
 2/9=110/2;
 99//99;
 2/9=110/2;
 3/5=1,6=6,7=101,11=9,25=1,30=1,71=1/1,2,3;
 4/5=5,16=3,69=1/1;
 5/5=2,38=5/2;
 8/6=4,10=2/1;
 9/15=2,16=-3/6;
 10/5=1/2;
 7/12=2/1,2,3,16;
 1/18=20,19=15/3(-8);
 2/9=110/2;
 6/7=2,8=2,9=2,10=2/1;
 99//99;
 Leave Link    1 at Fri Sep 17 14:52:44 2021, MaxMem=   524288000 cpu:               0.0 elap:               0.2
 (Enter /opt/gaussian/g16_legacy/l101.exe)
 --------------------------------------------------
 Conformer number 2798. Energy MM = 23.242 kcal/mol
 --------------------------------------------------
 Symbolic Z-matrix:
 Charge =  0 Multiplicity = 1
 C                     0.4692    1.0819   -0.2407 
 H                     0.0262    2.0529   -0.5001 
 H                     0.4625    0.5109   -1.1768 
 C                     1.889     1.2999    0.2402 
 C                     2.1028    2.5508    1.0534 
 H                     1.8334    3.4353    0.467 
 H                     3.1452    2.6677    1.3683 
 H                     1.4855    2.5302    1.9569 
 C                     2.9203    0.4768   -0.0345 
 H                     3.9095    0.737     0.3411 
 C                     2.8807   -0.8086   -0.7991 
 H                     1.8686   -1.1422   -1.0386 
 H                     3.3525   -1.5994   -0.207 
 H                     3.4405   -0.7027   -1.7332 
 C                    -1.6493   -2.2765   -0.287 
 H                    -0.5746   -2.2098   -0.1033 
 H                    -2.0659   -3.0116    0.4091 
 H                    -1.7729   -2.6584   -1.3062 
 C                    -2.364    -0.9615   -0.1388 
 C                    -3.8093   -0.9906   -0.5627 
 H                    -3.8897   -1.2679   -1.6189 
 H                    -4.2999   -0.0198   -0.4356 
 H                    -4.3635   -1.7232    0.0332 
 C                    -1.8042    0.1766    0.316 
 H                    -2.4192    1.0756    0.3613 
 C                    -0.3952    0.3747    0.808 
 H                    -0.4424    0.9762    1.7247 
 H                     0.0644   -0.5742    1.1033 
 
 ITRead=  0  0  0  0  0  0  0  0  0  0  0  0  0  0  0  0  0  0  0  0
 ITRead=  0  0  0  0  0  0  0  0
 MicOpt= -1 -1 -1 -1 -1 -1 -1 -1 -1 -1 -1 -1 -1 -1 -1 -1 -1 -1 -1 -1
 MicOpt= -1 -1 -1 -1 -1 -1 -1 -1
 NAtoms=     28 NQM=       28 NQMF=       0 NMMI=      0 NMMIF=      0
                NMic=       0 NMicF=      0.
                    Isotopes and Nuclear Properties:
 (Nuclear quadrupole moments (NQMom) in fm**2, nuclear magnetic moments (NMagM)
  in nuclear magnetons)

  Atom         1           2           3           4           5           6           7           8           9          10
 IAtWgt=          12           1           1          12          12           1           1           1          12           1
 AtmWgt=  12.0000000   1.0078250   1.0078250  12.0000000  12.0000000   1.0078250   1.0078250   1.0078250  12.0000000   1.0078250
 NucSpn=           0           1           1           0           0           1           1           1           0           1
 AtZEff=  -0.0000000  -0.0000000  -0.0000000  -0.0000000  -0.0000000  -0.0000000  -0.0000000  -0.0000000  -0.0000000  -0.0000000
 NQMom=    0.0000000   0.0000000   0.0000000   0.0000000   0.0000000   0.0000000   0.0000000   0.0000000   0.0000000   0.0000000
 NMagM=    0.0000000   2.7928460   2.7928460   0.0000000   0.0000000   2.7928460   2.7928460   2.7928460   0.0000000   2.7928460
 AtZNuc=   6.0000000   1.0000000   1.0000000   6.0000000   6.0000000   1.0000000   1.0000000   1.0000000   6.0000000   1.0000000

  Atom        11          12          13          14          15          16          17          18          19          20
 IAtWgt=          12           1           1           1          12           1           1           1          12          12
 AtmWgt=  12.0000000   1.0078250   1.0078250   1.0078250  12.0000000   1.0078250   1.0078250   1.0078250  12.0000000  12.0000000
 NucSpn=           0           1           1           1           0           1           1           1           0           0
 AtZEff=  -0.0000000  -0.0000000  -0.0000000  -0.0000000  -0.0000000  -0.0000000  -0.0000000  -0.0000000  -0.0000000  -0.0000000
 NQMom=    0.0000000   0.0000000   0.0000000   0.0000000   0.0000000   0.0000000   0.0000000   0.0000000   0.0000000   0.0000000
 NMagM=    0.0000000   2.7928460   2.7928460   2.7928460   0.0000000   2.7928460   2.7928460   2.7928460   0.0000000   0.0000000
 AtZNuc=   6.0000000   1.0000000   1.0000000   1.0000000   6.0000000   1.0000000   1.0000000   1.0000000   6.0000000   6.0000000

  Atom        21          22          23          24          25          26          27          28
 IAtWgt=           1           1           1          12           1          12           1           1
 AtmWgt=   1.0078250   1.0078250   1.0078250  12.0000000   1.0078250  12.0000000   1.0078250   1.0078250
 NucSpn=           1           1           1           0           1           0           1           1
 AtZEff=  -0.0000000  -0.0000000  -0.0000000  -0.0000000  -0.0000000  -0.0000000  -0.0000000  -0.0000000
 NQMom=    0.0000000   0.0000000   0.0000000   0.0000000   0.0000000   0.0000000   0.0000000   0.0000000
 NMagM=    2.7928460   2.7928460   2.7928460   0.0000000   2.7928460   0.0000000   2.7928460   2.7928460
 AtZNuc=   1.0000000   1.0000000   1.0000000   6.0000000   1.0000000   6.0000000   1.0000000   1.0000000
 Leave Link  101 at Fri Sep 17 14:52:45 2021, MaxMem=   524288000 cpu:               0.3 elap:               0.4
 (Enter /opt/gaussian/g16_legacy/l103.exe)

 GradGradGradGradGradGradGradGradGradGradGradGradGradGradGradGradGradGrad
 Berny optimization.
 Initialization pass.
                           ----------------------------
                           !    Initial Parameters    !
                           ! (Angstroms and Degrees)  !
 --------------------------                            --------------------------
 ! Name  Definition              Value          Derivative Info.                !
 --------------------------------------------------------------------------------
 ! R1    R(1,2)                  1.0984         estimate D2E/DX2                !
 ! R2    R(1,3)                  1.0965         estimate D2E/DX2                !
 ! R3    R(1,4)                  1.5148         estimate D2E/DX2                !
 ! R4    R(1,26)                 1.532          estimate D2E/DX2                !
 ! R5    R(4,5)                  1.5072         estimate D2E/DX2                !
 ! R6    R(4,9)                  1.3478         estimate D2E/DX2                !
 ! R7    R(5,6)                  1.0949         estimate D2E/DX2                !
 ! R8    R(5,7)                  1.0952         estimate D2E/DX2                !
 ! R9    R(5,8)                  1.0944         estimate D2E/DX2                !
 ! R10   R(9,10)                 1.0896         estimate D2E/DX2                !
 ! R11   R(9,11)                 1.4961         estimate D2E/DX2                !
 ! R12   R(11,12)                1.0922         estimate D2E/DX2                !
 ! R13   R(11,13)                1.0948         estimate D2E/DX2                !
 ! R14   R(11,14)                1.0941         estimate D2E/DX2                !
 ! R15   R(15,16)                1.0923         estimate D2E/DX2                !
 ! R16   R(15,17)                1.0948         estimate D2E/DX2                !
 ! R17   R(15,18)                1.0954         estimate D2E/DX2                !
 ! R18   R(15,19)                1.504          estimate D2E/DX2                !
 ! R19   R(19,20)                1.5065         estimate D2E/DX2                !
 ! R20   R(19,24)                1.3474         estimate D2E/DX2                !
 ! R21   R(20,21)                1.095          estimate D2E/DX2                !
 ! R22   R(20,22)                1.0951         estimate D2E/DX2                !
 ! R23   R(20,23)                1.095          estimate D2E/DX2                !
 ! R24   R(24,25)                1.0902         estimate D2E/DX2                !
 ! R25   R(24,26)                1.5055         estimate D2E/DX2                !
 ! R26   R(26,27)                1.0974         estimate D2E/DX2                !
 ! R27   R(26,28)                1.0949         estimate D2E/DX2                !
 ! A1    A(2,1,3)              104.8491         estimate D2E/DX2                !
 ! A2    A(2,1,4)              109.0132         estimate D2E/DX2                !
 ! A3    A(2,1,26)             110.0101         estimate D2E/DX2                !
 ! A4    A(3,1,4)              110.5906         estimate D2E/DX2                !
 ! A5    A(3,1,26)             109.9102         estimate D2E/DX2                !
 ! A6    A(4,1,26)             112.2071         estimate D2E/DX2                !
 ! A7    A(1,4,5)              115.0668         estimate D2E/DX2                !
 ! A8    A(1,4,9)              124.3744         estimate D2E/DX2                !
 ! A9    A(5,4,9)              120.5485         estimate D2E/DX2                !
 ! A10   A(4,5,6)              110.2789         estimate D2E/DX2                !
 ! A11   A(4,5,7)              112.2552         estimate D2E/DX2                !
 ! A12   A(4,5,8)              110.4735         estimate D2E/DX2                !
 ! A13   A(6,5,7)              107.5754         estimate D2E/DX2                !
 ! A14   A(6,5,8)              108.5761         estimate D2E/DX2                !
 ! A15   A(7,5,8)              107.5471         estimate D2E/DX2                !
 ! A16   A(4,9,10)             118.5916         estimate D2E/DX2                !
 ! A17   A(4,9,11)             127.4876         estimate D2E/DX2                !
 ! A18   A(10,9,11)            113.913          estimate D2E/DX2                !
 ! A19   A(9,11,12)            113.5151         estimate D2E/DX2                !
 ! A20   A(9,11,13)            109.4382         estimate D2E/DX2                !
 ! A21   A(9,11,14)            109.8526         estimate D2E/DX2                !
 ! A22   A(12,11,13)           107.2957         estimate D2E/DX2                !
 ! A23   A(12,11,14)           108.4487         estimate D2E/DX2                !
 ! A24   A(13,11,14)           108.1288         estimate D2E/DX2                !
 ! A25   A(16,15,17)           107.9671         estimate D2E/DX2                !
 ! A26   A(16,15,18)           106.7849         estimate D2E/DX2                !
 ! A27   A(16,15,19)           113.4266         estimate D2E/DX2                !
 ! A28   A(17,15,18)           108.3354         estimate D2E/DX2                !
 ! A29   A(17,15,19)           110.0969         estimate D2E/DX2                !
 ! A30   A(18,15,19)           110.0533         estimate D2E/DX2                !
 ! A31   A(15,19,20)           114.2861         estimate D2E/DX2                !
 ! A32   A(15,19,24)           125.0543         estimate D2E/DX2                !
 ! A33   A(20,19,24)           120.6567         estimate D2E/DX2                !
 ! A34   A(19,20,21)           110.2898         estimate D2E/DX2                !
 ! A35   A(19,20,22)           112.3347         estimate D2E/DX2                !
 ! A36   A(19,20,23)           110.2047         estimate D2E/DX2                !
 ! A37   A(21,20,22)           107.6716         estimate D2E/DX2                !
 ! A38   A(21,20,23)           108.5633         estimate D2E/DX2                !
 ! A39   A(22,20,23)           107.6502         estimate D2E/DX2                !
 ! A40   A(19,24,25)           118.4369         estimate D2E/DX2                !
 ! A41   A(19,24,26)           127.6098         estimate D2E/DX2                !
 ! A42   A(25,24,26)           113.9461         estimate D2E/DX2                !
 ! A43   A(1,26,24)            111.4131         estimate D2E/DX2                !
 ! A44   A(1,26,27)            110.0625         estimate D2E/DX2                !
 ! A45   A(1,26,28)            110.3547         estimate D2E/DX2                !
 ! A46   A(24,26,27)           107.7488         estimate D2E/DX2                !
 ! A47   A(24,26,28)           111.5276         estimate D2E/DX2                !
 ! A48   A(27,26,28)           105.5317         estimate D2E/DX2                !
 ! D1    D(2,1,4,5)             36.6488         estimate D2E/DX2                !
 ! D2    D(2,1,4,9)           -142.1825         estimate D2E/DX2                !
 ! D3    D(3,1,4,5)            151.4213         estimate D2E/DX2                !
 ! D4    D(3,1,4,9)            -27.41           estimate D2E/DX2                !
 ! D5    D(26,1,4,5)           -85.4649         estimate D2E/DX2                !
 ! D6    D(26,1,4,9)            95.7038         estimate D2E/DX2                !
 ! D7    D(2,1,26,24)           58.0233         estimate D2E/DX2                !
 ! D8    D(2,1,26,27)          -61.437          estimate D2E/DX2                !
 ! D9    D(2,1,26,28)         -177.512          estimate D2E/DX2                !
 ! D10   D(3,1,26,24)          -56.9362         estimate D2E/DX2                !
 ! D11   D(3,1,26,27)         -176.3965         estimate D2E/DX2                !
 ! D12   D(3,1,26,28)           67.5286         estimate D2E/DX2                !
 ! D13   D(4,1,26,24)          179.568          estimate D2E/DX2                !
 ! D14   D(4,1,26,27)           60.1076         estimate D2E/DX2                !
 ! D15   D(4,1,26,28)          -55.9673         estimate D2E/DX2                !
 ! D16   D(1,4,5,6)            -59.5005         estimate D2E/DX2                !
 ! D17   D(1,4,5,7)           -179.4362         estimate D2E/DX2                !
 ! D18   D(1,4,5,8)             60.5304         estimate D2E/DX2                !
 ! D19   D(9,4,5,6)            119.3794         estimate D2E/DX2                !
 ! D20   D(9,4,5,7)             -0.5563         estimate D2E/DX2                !
 ! D21   D(9,4,5,8)           -120.5897         estimate D2E/DX2                !
 ! D22   D(1,4,9,10)           178.5974         estimate D2E/DX2                !
 ! D23   D(1,4,9,11)            -2.4837         estimate D2E/DX2                !
 ! D24   D(5,4,9,10)            -0.1733         estimate D2E/DX2                !
 ! D25   D(5,4,9,11)           178.7456         estimate D2E/DX2                !
 ! D26   D(4,9,11,12)           -7.9259         estimate D2E/DX2                !
 ! D27   D(4,9,11,13)         -127.7531         estimate D2E/DX2                !
 ! D28   D(4,9,11,14)          113.677          estimate D2E/DX2                !
 ! D29   D(10,9,11,12)         171.0357         estimate D2E/DX2                !
 ! D30   D(10,9,11,13)          51.2085         estimate D2E/DX2                !
 ! D31   D(10,9,11,14)         -67.3614         estimate D2E/DX2                !
 ! D32   D(16,15,19,20)        172.3382         estimate D2E/DX2                !
 ! D33   D(16,15,19,24)         -7.0488         estimate D2E/DX2                !
 ! D34   D(17,15,19,20)        -66.5631         estimate D2E/DX2                !
 ! D35   D(17,15,19,24)        114.0499         estimate D2E/DX2                !
 ! D36   D(18,15,19,20)         52.7874         estimate D2E/DX2                !
 ! D37   D(18,15,19,24)       -126.5996         estimate D2E/DX2                !
 ! D38   D(15,19,20,21)        -60.2521         estimate D2E/DX2                !
 ! D39   D(15,19,20,22)        179.63           estimate D2E/DX2                !
 ! D40   D(15,19,20,23)         59.5977         estimate D2E/DX2                !
 ! D41   D(24,19,20,21)        119.1645         estimate D2E/DX2                !
 ! D42   D(24,19,20,22)         -0.9534         estimate D2E/DX2                !
 ! D43   D(24,19,20,23)       -120.9856         estimate D2E/DX2                !
 ! D44   D(15,19,24,25)        178.828          estimate D2E/DX2                !
 ! D45   D(15,19,24,26)         -2.2168         estimate D2E/DX2                !
 ! D46   D(20,19,24,25)         -0.5225         estimate D2E/DX2                !
 ! D47   D(20,19,24,26)        178.4328         estimate D2E/DX2                !
 ! D48   D(19,24,26,1)         103.3639         estimate D2E/DX2                !
 ! D49   D(19,24,26,27)       -135.811          estimate D2E/DX2                !
 ! D50   D(19,24,26,28)        -20.4387         estimate D2E/DX2                !
 ! D51   D(25,24,26,1)         -77.6413         estimate D2E/DX2                !
 ! D52   D(25,24,26,27)         43.1838         estimate D2E/DX2                !
 ! D53   D(25,24,26,28)        158.5561         estimate D2E/DX2                !
 --------------------------------------------------------------------------------
 Trust Radius=3.00D-01 FncErr=1.00D-07 GrdErr=1.00D-07 EigMax=2.50D+02 EigMin=1.00D-04
 Number of steps in this run=    138 maximum allowed number of steps=    168.
 GradGradGradGradGradGradGradGradGradGradGradGradGradGradGradGradGradGrad

 Leave Link  103 at Fri Sep 17 14:52:46 2021, MaxMem=   524288000 cpu:               0.0 elap:               0.3
 (Enter /opt/gaussian/g16_legacy/l202.exe)
                          Input orientation:                          
 ---------------------------------------------------------------------
 Center     Atomic      Atomic             Coordinates (Angstroms)
 Number     Number       Type             X           Y           Z
 ---------------------------------------------------------------------
      1          6           0        0.469200    1.081900   -0.240700
      2          1           0        0.026200    2.052900   -0.500100
      3          1           0        0.462500    0.510900   -1.176800
      4          6           0        1.889000    1.299900    0.240200
      5          6           0        2.102800    2.550800    1.053400
      6          1           0        1.833400    3.435300    0.467000
      7          1           0        3.145200    2.667700    1.368300
      8          1           0        1.485500    2.530200    1.956900
      9          6           0        2.920300    0.476800   -0.034500
     10          1           0        3.909500    0.737000    0.341100
     11          6           0        2.880700   -0.808600   -0.799100
     12          1           0        1.868600   -1.142200   -1.038600
     13          1           0        3.352500   -1.599400   -0.207000
     14          1           0        3.440500   -0.702700   -1.733200
     15          6           0       -1.649300   -2.276500   -0.287000
     16          1           0       -0.574600   -2.209800   -0.103300
     17          1           0       -2.065900   -3.011600    0.409100
     18          1           0       -1.772900   -2.658400   -1.306200
     19          6           0       -2.364000   -0.961500   -0.138800
     20          6           0       -3.809300   -0.990600   -0.562700
     21          1           0       -3.889700   -1.267900   -1.618900
     22          1           0       -4.299900   -0.019800   -0.435600
     23          1           0       -4.363500   -1.723200    0.033200
     24          6           0       -1.804200    0.176600    0.316000
     25          1           0       -2.419200    1.075600    0.361300
     26          6           0       -0.395200    0.374700    0.808000
     27          1           0       -0.442400    0.976200    1.724700
     28          1           0        0.064400   -0.574200    1.103300
 ---------------------------------------------------------------------
                    Distance matrix (angstroms):
                    1          2          3          4          5
     1  C    0.000000
     2  H    1.098353   0.000000
     3  H    1.096526   1.739553   0.000000
     4  C    1.514801   2.141279   2.159933   0.000000
     5  C    2.549708   2.640745   3.438832   1.507234   0.000000
     6  H    2.810760   2.472303   3.624025   2.148130   1.094889
     7  H    3.502088   3.687419   4.280911   2.172907   1.095183
     8  H    2.821327   2.897278   3.865770   2.150235   1.094439
     9  C    2.533092   3.328166   2.710497   1.347788   2.480586
    10  H    3.506153   4.185598   3.773188   2.099871   2.657331
    11  C    3.114664   4.052870   2.780545   2.551350   3.914391
    12  H    2.746195   3.727343   2.174616   2.756737   4.250831
    13  H    3.937502   4.948684   3.707557   3.278378   4.513814
    14  H    3.773722   4.557555   3.263570   3.211210   4.487744
    15  C    3.971025   4.647194   3.608468   5.058472   6.259213
    16  H    3.455964   4.323080   3.103254   4.301780   5.582986
    17  H    4.858571   5.554520   4.616914   5.853101   6.980937
    18  H    4.489114   5.107143   3.880492   5.609724   6.908294
    19  C    3.494694   3.863962   3.351792   4.831726   5.806022
    20  C    4.764924   4.896720   4.569453   6.193679   7.078575
    21  H    5.140137   5.254874   4.722417   6.591147   7.591687
    22  H    4.898576   4.797435   4.848863   6.364024   7.058305
    23  H    5.594515   5.814878   5.453951   6.948074   7.817987
    24  C    2.509548   2.745339   2.734618   3.860994   4.630900
    25  H    2.950474   2.770759   3.314941   4.315734   4.806631
    26  C    1.532022   2.169115   2.166479   2.529024   3.321993
    27  H    2.169098   2.515672   3.074744   2.782795   3.067255
    28  H    2.170914   3.077987   2.556322   2.754334   3.731379
                    6          7          8          9         10
     6  H    0.000000
     7  H    1.767023   0.000000
     8  H    1.777651   1.766341   0.000000
     9  C    3.191485   2.611220   3.200121   0.000000
    10  H    3.406885   2.316656   3.420841   1.089631   0.000000
    11  C    4.550883   4.105149   4.548594   1.496140   2.178845
    12  H    4.818877   4.683825   4.754609   2.176109   3.098425
    13  H    5.301900   4.553316   5.022126   2.127712   2.463621
    14  H    4.954462   4.589782   5.281146   2.132466   2.568155
    15  C    6.732189   7.083245   6.161690   5.340942   6.354207
    16  H    6.163673   6.308132   5.563815   4.408728   5.384076
    17  H    7.534614   7.767244   6.761632   6.101468   7.054221
    18  H    7.299508   7.727095   6.941654   5.785571   6.821437
    19  C    6.108765   6.767106   5.603800   5.477537   6.517055
    20  C    7.244925   8.091785   6.839541   6.907950   7.961239
    21  H    7.695774   8.596635   7.490306   7.206275   8.287867
    22  H    7.097166   8.118265   6.759986   7.248364   8.280716
    23  H    8.074644   8.800174   7.483504   7.609095   8.636545
    24  C    4.886109   5.639989   4.365102   4.746985   5.741171
    25  H    4.864562   5.874639   4.461892   5.387530   6.337784
    26  C    3.801343   4.255140   3.082723   3.422393   4.345078
    27  H    3.578861   3.982344   2.487093   3.827785   4.572811
    28  H    4.428355   4.480119   3.519298   3.248901   4.133399
                   11         12         13         14         15
    11  C    0.000000
    12  H    1.092243   0.000000
    13  H    1.094780   1.761406   0.000000
    14  H    1.094136   1.773837   1.772315   0.000000
    15  C    4.789350   3.771891   5.048056   5.520363   0.000000
    16  H    3.792967   2.825559   3.975608   4.587914   1.092325
    17  H    5.548136   4.590292   5.633200   6.343572   1.094752
    18  H    5.033379   3.953605   5.347845   5.584499   1.095396
    19  C    5.288313   4.330958   5.752386   6.025057   1.503989
    20  C    6.696649   5.699826   7.196425   7.349324   2.528863
    21  H    6.835301   5.788831   7.385988   7.352846   2.794749
    22  H    7.232935   6.298713   7.817072   7.878065   3.484316
    23  H    7.348990   6.350227   7.720730   8.066226   2.788467
    24  C    4.915522   4.130815   5.478983   5.699058   2.530870
    25  H    5.743316   5.026289   6.386792   6.471890   3.499945
    26  C    3.835947   3.291764   4.355749   4.725577   3.130600
    27  H    4.538510   4.179015   4.976590   5.463762   4.010437
    28  H    3.406701   2.857533   3.685040   4.411383   2.787028
                   16         17         18         19         20
    16  H    0.000000
    17  H    1.769015   0.000000
    18  H    1.756170   1.775628   0.000000
    19  C    2.182078   2.142888   2.142823   0.000000
    20  C    3.487231   2.840472   2.735192   1.506463   0.000000
    21  H    3.764852   3.237209   2.551884   2.147635   1.094951
    22  H    4.334095   3.828203   3.755780   2.173154   1.095123
    23  H    3.822457   2.660872   3.062646   2.146572   1.094960
    24  C    2.717100   3.200277   3.266456   1.347401   2.480906
    25  H    3.796348   4.102720   4.140171   2.098314   2.656188
    26  C    2.746323   3.797023   3.945579   2.560866   3.924148
    27  H    3.675549   4.502122   4.915984   3.304521   4.520677
    28  H    2.130585   3.310742   3.677669   2.754985   4.237275
                   21         22         23         24         25
    21  H    0.000000
    22  H    1.768111   0.000000
    23  H    1.777982   1.767877   0.000000
    24  C    3.190569   2.613808   3.199880   0.000000
    25  H    3.402287   2.317754   3.423629   1.090173   0.000000
    26  C    4.560648   4.116899   4.555097   1.505519   2.188008
    27  H    5.300898   4.532021   5.052025   2.116198   2.403430
    28  H    4.850412   4.660760   4.698044   2.162223   3.072568
                   26         27         28
    26  C    0.000000
    27  H    1.097437   0.000000
    28  H    1.094918   1.745487   0.000000
 Stoichiometry    C10H18
 Framework group  C1[X(C10H18)]
 Deg. of freedom    78
 Full point group                 C1      NOp   1
 Largest Abelian subgroup         C1      NOp   1
 Largest concise Abelian subgroup C1      NOp   1
                         Standard orientation:                         
 ---------------------------------------------------------------------
 Center     Atomic      Atomic             Coordinates (Angstroms)
 Number     Number       Type             X           Y           Z
 ---------------------------------------------------------------------
      1          6           0        0.793811   -0.586470    0.589220
      2          1           0        0.746024   -1.484290    1.220104
      3          1           0        0.484591    0.235310    1.246053
      4          6           0        2.220903   -0.386954    0.122079
      5          6           0        2.975619   -1.655059   -0.184630
      6          1           0        3.025244   -2.291676    0.704773
      7          1           0        4.003235   -1.458214   -0.508175
      8          1           0        2.478718   -2.212224   -0.984913
      9          6           0        2.820243    0.813885   -0.001653
     10          1           0        3.860375    0.846740   -0.324675
     11          6           0        2.215761    2.161901    0.234753
     12          1           0        1.137474    2.131983    0.406213
     13          1           0        2.388752    2.797227   -0.639876
     14          1           0        2.690772    2.635735    1.099033
     15          6           0       -2.466012    1.425965   -0.456100
     16          1           0       -1.439602    1.725948   -0.678959
     17          1           0       -3.076372    1.626097   -1.342605
     18          1           0       -2.815369    2.072772    0.355986
     19          6           0       -2.593436   -0.018283   -0.056232
     20          6           0       -3.965095   -0.407947    0.429715
     21          1           0       -4.237062    0.181297    1.311612
     22          1           0       -4.023736   -1.466058    0.705863
     23          1           0       -4.709065   -0.227415   -0.353136
     24          6           0       -1.596312   -0.923565   -0.097446
     25          1           0       -1.803994   -1.940202    0.236914
     26          6           0       -0.185963   -0.715604   -0.581446
     27          1           0        0.084164   -1.577218   -1.205161
     28          1           0       -0.111263    0.156971   -1.238620
 ---------------------------------------------------------------------
 Rotational constants (GHZ):           2.2180647           0.5802288           0.4854205
 Leave Link  202 at Fri Sep 17 14:52:46 2021, MaxMem=   524288000 cpu:               0.0 elap:               0.3
 (Enter /opt/gaussian/g16_legacy/l301.exe)
 Standard basis: 6-31G(d,p) (6D, 7F)
 Ernie: Thresh=  0.10000D-02 Tol=  0.10000D-05 Strict=F.
 There are   240 symmetry adapted cartesian basis functions of A   symmetry.
 There are   240 symmetry adapted basis functions of A   symmetry.
   240 basis functions,   406 primitive gaussians,   240 cartesian basis functions
    39 alpha electrons       39 beta electrons
       nuclear repulsion energy       516.4336590107 Hartrees.
 IExCor=    0 DFT=F Ex=HF Corr=None ExCW=0 ScaHFX=  1.000000
 ScaDFX=  1.000000  1.000000  1.000000  1.000000 ScalE2=  1.000000  1.000000
 IRadAn=      5 IRanWt=     -1 IRanGd=            0 ICorTp=0 IEmpDi=  4
 NAtoms=   28 NActive=   28 NUniq=   28 SFac= 1.00D+00 NAtFMM=   60 NAOKFM=F Big=F
 Integral buffers will be    131072 words long.
 Raffenetti 1 integral format.
 Two-electron integral symmetry is turned on.
 Leave Link  301 at Fri Sep 17 14:52:47 2021, MaxMem=   524288000 cpu:               0.1 elap:               0.6
 (Enter /opt/gaussian/g16_legacy/l302.exe)
 NPDir=0 NMtPBC=     1 NCelOv=     1 NCel=       1 NClECP=     1 NCelD=      1
         NCelK=      1 NCelE2=     1 NClLst=     1 CellRange=     0.0.
 One-electron integrals computed using PRISM.
 One-electron integral symmetry used in STVInt
 NBasis=   240 RedAO= T EigKep=  2.10D-03  NBF=   240
 NBsUse=   240 1.00D-06 EigRej= -1.00D+00 NBFU=   240
 Leave Link  302 at Fri Sep 17 14:52:49 2021, MaxMem=   524288000 cpu:               0.3 elap:               1.7
 (Enter /opt/gaussian/g16_legacy/l303.exe)
 DipDrv:  MaxL=1.
 Leave Link  303 at Fri Sep 17 14:52:50 2021, MaxMem=   524288000 cpu:               0.1 elap:               0.2
 (Enter /opt/gaussian/g16_legacy/l401.exe)
 ExpMin= 1.61D-01 ExpMax= 3.05D+03 ExpMxC= 4.57D+02 IAcc=3 IRadAn=         5 AccDes= 0.00D+00
 Harris functional with IExCor=  205 and IRadAn=       5 diagonalized for initial guess.
 HarFok:  IExCor=  205 AccDes= 0.00D+00 IRadAn=         5 IDoV= 1 UseB2=F ITyADJ=14
 ICtDFT=  3500011 ScaDFX=  1.000000  1.000000  1.000000  1.000000
 FoFCou: FMM=F IPFlag=           0 FMFlag=      100000 FMFlg1=           0
         NFxFlg=           0 DoJE=T BraDBF=F KetDBF=T FulRan=T
         wScrn=  0.000000 ICntrl=       500 IOpCl=  0 I1Cent=   200000004 NGrid=           0
         NMat0=    1 NMatS0=      1 NMatT0=    0 NMatD0=    1 NMtDS0=    0 NMtDT0=    0
 Petite list used in FoFCou.
 Harris En= -390.109899385495    
 JPrj=0 DoOrth=F DoCkMO=F.
 Leave Link  401 at Fri Sep 17 14:53:02 2021, MaxMem=   524288000 cpu:              11.7 elap:              12.3
 (Enter /opt/gaussian/g16_legacy/l502.exe)
 Keep R1 ints in memory in canonical form, NReq=425198025.
 FoFCou: FMM=F IPFlag=           0 FMFlag=           0 FMFlg1=           0
         NFxFlg=           0 DoJE=F BraDBF=F KetDBF=F FulRan=T
         wScrn=  0.000000 ICntrl=       600 IOpCl=  0 I1Cent=           0 NGrid=           0
         NMat0=    1 NMatS0=  28920 NMatT0=    0 NMatD0=    1 NMtDS0=    0 NMtDT0=    0
 Symmetry not used in FoFCou.
 Two-electron integral symmetry not used.
 Closed shell SCF:
 Using DIIS extrapolation, IDIIS=  1040.
 NGot=   524288000 LenX=   105970886 LenY=   105912845
 Requested convergence on RMS density matrix=1.00D-08 within 128 cycles.
 Requested convergence on MAX density matrix=1.00D-06.
 Requested convergence on             energy=1.00D-06.
 No special actions if energy rises.

 Cycle   1  Pass 1  IDiag  1:
 E= -388.533191438787    
 DIIS: error= 5.21D-02 at cycle   1 NSaved=   1.
 NSaved= 1 IEnMin= 1 EnMin= -388.533191438787     IErMin= 1 ErrMin= 5.21D-02
 ErrMax= 5.21D-02  0.00D+00 EMaxC= 1.00D-01 BMatC= 8.07D-01 BMatP= 8.07D-01
 IDIUse=3 WtCom= 4.79D-01 WtEn= 5.21D-01
 Coeff-Com:  0.100D+01
 Coeff-En:   0.100D+01
 Coeff:      0.100D+01
 Gap=     0.508 Goal=   None    Shift=    0.000
 GapD=    0.508 DampG=2.000 DampE=0.500 DampFc=1.0000 IDamp=-1.
 RMSDP=4.00D-03 MaxDP=1.14D-01              OVMax= 1.33D-01

 Cycle   2  Pass 1  IDiag  1:
 E= -389.073883072798     Delta-E=       -0.540691634011 Rises=F Damp=F
 DIIS: error= 1.59D-02 at cycle   2 NSaved=   2.
 NSaved= 2 IEnMin= 2 EnMin= -389.073883072798     IErMin= 2 ErrMin= 1.59D-02
 ErrMax= 1.59D-02  0.00D+00 EMaxC= 1.00D-01 BMatC= 8.66D-02 BMatP= 8.07D-01
 IDIUse=3 WtCom= 8.41D-01 WtEn= 1.59D-01
 Coeff-Com:  0.183D+00 0.817D+00
 Coeff-En:   0.000D+00 0.100D+01
 Coeff:      0.154D+00 0.846D+00
 Gap=     0.549 Goal=   None    Shift=    0.000
 RMSDP=1.63D-03 MaxDP=3.04D-02 DE=-5.41D-01 OVMax= 4.61D-02

 Cycle   3  Pass 1  IDiag  1:
 E= -389.151438295374     Delta-E=       -0.077555222576 Rises=F Damp=F
 DIIS: error= 3.43D-03 at cycle   3 NSaved=   3.
 NSaved= 3 IEnMin= 3 EnMin= -389.151438295374     IErMin= 3 ErrMin= 3.43D-03
 ErrMax= 3.43D-03  0.00D+00 EMaxC= 1.00D-01 BMatC= 3.14D-03 BMatP= 8.66D-02
 IDIUse=3 WtCom= 9.66D-01 WtEn= 3.43D-02
 Coeff-Com: -0.245D-01 0.106D+00 0.919D+00
 Coeff-En:   0.000D+00 0.000D+00 0.100D+01
 Coeff:     -0.236D-01 0.102D+00 0.921D+00
 Gap=     0.499 Goal=   None    Shift=    0.000
 RMSDP=2.59D-04 MaxDP=7.14D-03 DE=-7.76D-02 OVMax= 1.01D-02

 Cycle   4  Pass 1  IDiag  1:
 E= -389.155063696476     Delta-E=       -0.003625401102 Rises=F Damp=F
 DIIS: error= 5.31D-04 at cycle   4 NSaved=   4.
 NSaved= 4 IEnMin= 4 EnMin= -389.155063696476     IErMin= 4 ErrMin= 5.31D-04
 ErrMax= 5.31D-04  0.00D+00 EMaxC= 1.00D-01 BMatC= 9.28D-05 BMatP= 3.14D-03
 IDIUse=3 WtCom= 9.95D-01 WtEn= 5.31D-03
 Coeff-Com: -0.424D-02-0.189D-02 0.949D-01 0.911D+00
 Coeff-En:   0.000D+00 0.000D+00 0.000D+00 0.100D+01
 Coeff:     -0.421D-02-0.188D-02 0.944D-01 0.912D+00
 Gap=     0.499 Goal=   None    Shift=    0.000
 RMSDP=7.39D-05 MaxDP=1.49D-03 DE=-3.63D-03 OVMax= 3.14D-03

 Cycle   5  Pass 1  IDiag  1:
 E= -389.155188015608     Delta-E=       -0.000124319132 Rises=F Damp=F
 DIIS: error= 1.63D-04 at cycle   5 NSaved=   5.
 NSaved= 5 IEnMin= 5 EnMin= -389.155188015608     IErMin= 5 ErrMin= 1.63D-04
 ErrMax= 1.63D-04  0.00D+00 EMaxC= 1.00D-01 BMatC= 1.60D-05 BMatP= 9.28D-05
 IDIUse=3 WtCom= 9.98D-01 WtEn= 1.63D-03
 Coeff-Com:  0.241D-02-0.152D-01-0.102D+00 0.176D+00 0.939D+00
 Coeff-En:   0.000D+00 0.000D+00 0.000D+00 0.000D+00 0.100D+01
 Coeff:      0.241D-02-0.152D-01-0.102D+00 0.175D+00 0.939D+00
 Gap=     0.500 Goal=   None    Shift=    0.000
 RMSDP=3.00D-05 MaxDP=6.56D-04 DE=-1.24D-04 OVMax= 9.23D-04

 Cycle   6  Pass 1  IDiag  1:
 E= -389.155209495568     Delta-E=       -0.000021479960 Rises=F Damp=F
 DIIS: error= 3.58D-05 at cycle   6 NSaved=   6.
 NSaved= 6 IEnMin= 6 EnMin= -389.155209495568     IErMin= 6 ErrMin= 3.58D-05
 ErrMax= 3.58D-05  0.00D+00 EMaxC= 1.00D-01 BMatC= 5.50D-07 BMatP= 1.60D-05
 IDIUse=1 WtCom= 1.00D+00 WtEn= 0.00D+00
 Coeff-Com:  0.720D-03-0.335D-02-0.261D-01-0.433D-02 0.177D+00 0.856D+00
 Coeff:      0.720D-03-0.335D-02-0.261D-01-0.433D-02 0.177D+00 0.856D+00
 Gap=     0.500 Goal=   None    Shift=    0.000
 RMSDP=5.30D-06 MaxDP=1.61D-04 DE=-2.15D-05 OVMax= 3.24D-04

 Cycle   7  Pass 1  IDiag  1:
 E= -389.155210336597     Delta-E=       -0.000000841029 Rises=F Damp=F
 DIIS: error= 1.03D-05 at cycle   7 NSaved=   7.
 NSaved= 7 IEnMin= 7 EnMin= -389.155210336597     IErMin= 7 ErrMin= 1.03D-05
 ErrMax= 1.03D-05  0.00D+00 EMaxC= 1.00D-01 BMatC= 5.44D-08 BMatP= 5.50D-07
 IDIUse=1 WtCom= 1.00D+00 WtEn= 0.00D+00
 Coeff-Com: -0.494D-04 0.464D-03 0.301D-02-0.105D-01-0.468D-01 0.145D+00
 Coeff-Com:  0.909D+00
 Coeff:     -0.494D-04 0.464D-03 0.301D-02-0.105D-01-0.468D-01 0.145D+00
 Coeff:      0.909D+00
 Gap=     0.500 Goal=   None    Shift=    0.000
 RMSDP=1.71D-06 MaxDP=4.10D-05 DE=-8.41D-07 OVMax= 8.42D-05

 Cycle   8  Pass 1  IDiag  1:
 E= -389.155210425558     Delta-E=       -0.000000088961 Rises=F Damp=F
 DIIS: error= 3.51D-06 at cycle   8 NSaved=   8.
 NSaved= 8 IEnMin= 8 EnMin= -389.155210425558     IErMin= 8 ErrMin= 3.51D-06
 ErrMax= 3.51D-06  0.00D+00 EMaxC= 1.00D-01 BMatC= 5.10D-09 BMatP= 5.44D-08
 IDIUse=1 WtCom= 1.00D+00 WtEn= 0.00D+00
 Coeff-Com: -0.581D-04 0.249D-03 0.208D-02 0.315D-02-0.171D-01-0.804D-01
 Coeff-Com: -0.123D+00 0.121D+01
 Coeff:     -0.581D-04 0.249D-03 0.208D-02 0.315D-02-0.171D-01-0.804D-01
 Coeff:     -0.123D+00 0.121D+01
 Gap=     0.500 Goal=   None    Shift=    0.000
 RMSDP=7.85D-07 MaxDP=2.41D-05 DE=-8.90D-08 OVMax= 5.81D-05

 Cycle   9  Pass 1  IDiag  1:
 E= -389.155210441449     Delta-E=       -0.000000015891 Rises=F Damp=F
 DIIS: error= 1.46D-06 at cycle   9 NSaved=   9.
 NSaved= 9 IEnMin= 9 EnMin= -389.155210441449     IErMin= 9 ErrMin= 1.46D-06
 ErrMax= 1.46D-06  0.00D+00 EMaxC= 1.00D-01 BMatC= 7.39D-10 BMatP= 5.10D-09
 IDIUse=1 WtCom= 1.00D+00 WtEn= 0.00D+00
 Coeff-Com:  0.929D-05-0.690D-04-0.480D-03 0.144D-02 0.385D-02 0.973D-04
 Coeff-Com: -0.865D-01-0.120D+00 0.120D+01
 Coeff:      0.929D-05-0.690D-04-0.480D-03 0.144D-02 0.385D-02 0.973D-04
 Coeff:     -0.865D-01-0.120D+00 0.120D+01
 Gap=     0.500 Goal=   None    Shift=    0.000
 RMSDP=2.99D-07 MaxDP=1.24D-05 DE=-1.59D-08 OVMax= 2.71D-05

 Cycle  10  Pass 1  IDiag  1:
 E= -389.155210443864     Delta-E=       -0.000000002414 Rises=F Damp=F
 DIIS: error= 3.97D-07 at cycle  10 NSaved=  10.
 NSaved=10 IEnMin=10 EnMin= -389.155210443864     IErMin=10 ErrMin= 3.97D-07
 ErrMax= 3.97D-07  0.00D+00 EMaxC= 1.00D-01 BMatC= 1.21D-10 BMatP= 7.39D-10
 IDIUse=1 WtCom= 1.00D+00 WtEn= 0.00D+00
 Coeff-Com:  0.952D-05-0.464D-04-0.369D-03-0.135D-03 0.233D-02 0.142D-01
 Coeff-Com:  0.595D-02-0.211D+00 0.144D+00 0.105D+01
 Coeff:      0.952D-05-0.464D-04-0.369D-03-0.135D-03 0.233D-02 0.142D-01
 Coeff:      0.595D-02-0.211D+00 0.144D+00 0.105D+01
 Gap=     0.500 Goal=   None    Shift=    0.000
 RMSDP=1.24D-07 MaxDP=3.06D-06 DE=-2.41D-09 OVMax= 9.88D-06

 Cycle  11  Pass 1  IDiag  1:
 E= -389.155210444181     Delta-E=       -0.000000000318 Rises=F Damp=F
 DIIS: error= 1.55D-07 at cycle  11 NSaved=  11.
 NSaved=11 IEnMin=11 EnMin= -389.155210444181     IErMin=11 ErrMin= 1.55D-07
 ErrMax= 1.55D-07  0.00D+00 EMaxC= 1.00D-01 BMatC= 9.54D-12 BMatP= 1.21D-10
 IDIUse=1 WtCom= 1.00D+00 WtEn= 0.00D+00
 Coeff-Com:  0.394D-06 0.839D-06 0.101D-05-0.149D-03-0.305D-03 0.278D-02
 Coeff-Com:  0.110D-01-0.153D-01-0.107D+00 0.164D+00 0.945D+00
 Coeff:      0.394D-06 0.839D-06 0.101D-05-0.149D-03-0.305D-03 0.278D-02
 Coeff:      0.110D-01-0.153D-01-0.107D+00 0.164D+00 0.945D+00
 Gap=     0.500 Goal=   None    Shift=    0.000
 RMSDP=2.76D-08 MaxDP=1.16D-06 DE=-3.18D-10 OVMax= 2.51D-06

 Cycle  12  Pass 1  IDiag  1:
 E= -389.155210444208     Delta-E=       -0.000000000026 Rises=F Damp=F
 DIIS: error= 3.64D-08 at cycle  12 NSaved=  12.
 NSaved=12 IEnMin=12 EnMin= -389.155210444208     IErMin=12 ErrMin= 3.64D-08
 ErrMax= 3.64D-08  0.00D+00 EMaxC= 1.00D-01 BMatC= 1.17D-12 BMatP= 9.54D-12
 IDIUse=1 WtCom= 1.00D+00 WtEn= 0.00D+00
 Coeff-Com: -0.102D-05 0.547D-05 0.429D-04 0.324D-05-0.343D-03-0.126D-02
 Coeff-Com:  0.366D-03 0.217D-01-0.321D-01-0.113D+00 0.982D-01 0.103D+01
 Coeff:     -0.102D-05 0.547D-05 0.429D-04 0.324D-05-0.343D-03-0.126D-02
 Coeff:      0.366D-03 0.217D-01-0.321D-01-0.113D+00 0.982D-01 0.103D+01
 Gap=     0.500 Goal=   None    Shift=    0.000
 RMSDP=1.18D-08 MaxDP=3.33D-07 DE=-2.65D-11 OVMax= 8.46D-07

 Cycle  13  Pass 1  IDiag  1:
 E= -389.155210444205     Delta-E=        0.000000000002 Rises=F Damp=F
 DIIS: error= 1.06D-08 at cycle  13 NSaved=  13.
 NSaved=13 IEnMin=12 EnMin= -389.155210444208     IErMin=13 ErrMin= 1.06D-08
 ErrMax= 1.06D-08  0.00D+00 EMaxC= 1.00D-01 BMatC= 5.47D-14 BMatP= 1.17D-12
 IDIUse=1 WtCom= 1.00D+00 WtEn= 0.00D+00
 Coeff-Com: -0.122D-06 0.462D-06 0.389D-05 0.136D-04-0.170D-04-0.298D-03
 Coeff-Com: -0.849D-03 0.352D-02 0.515D-02-0.212D-01-0.612D-01 0.111D+00
 Coeff-Com:  0.964D+00
 Coeff:     -0.122D-06 0.462D-06 0.389D-05 0.136D-04-0.170D-04-0.298D-03
 Coeff:     -0.849D-03 0.352D-02 0.515D-02-0.212D-01-0.612D-01 0.111D+00
 Coeff:      0.964D+00
 Gap=     0.500 Goal=   None    Shift=    0.000
 RMSDP=2.13D-09 MaxDP=7.03D-08 DE= 2.16D-12 OVMax= 1.05D-07

 SCF Done:  E(RHF) =  -389.155210444     A.U. after   13 cycles
            NFock= 13  Conv=0.21D-08     -V/T= 2.0014
 KE= 3.886259900484D+02 PE=-1.937501172821D+03 EE= 6.432863133174D+02
 Leave Link  502 at Fri Sep 17 14:53:34 2021, MaxMem=   524288000 cpu:              30.1 elap:              31.7
 (Enter /opt/gaussian/g16_legacy/l801.exe)
 ExpMin= 1.61D-01 ExpMax= 3.05D+03 ExpMxC= 4.57D+02 IAcc=3 IRadAn=         5 AccDes= 0.00D+00
 HarFok:  IExCor=  205 AccDes= 0.00D+00 IRadAn=         5 IDoV=-2 UseB2=F ITyADJ=14
 ICtDFT= 12500011 ScaDFX=  1.000000  1.000000  1.000000  1.000000
 Largest valence mixing into a core orbital is  1.98D-04
 Largest core mixing into a valence orbital is  3.52D-05
 Range of M.O.s used for correlation:    11   240
 NBasis=   240 NAE=    39 NBE=    39 NFC=    10 NFV=     0
 NROrb=    230 NOA=    29 NOB=    29 NVA=   201 NVB=   201
 Leave Link  801 at Fri Sep 17 14:53:36 2021, MaxMem=   524288000 cpu:               1.6 elap:               1.8
 (Enter /opt/gaussian/g16_legacy/l906.exe)
 Frozen-core derivative calculation, NFC=  10 NFV=   0.
 FulOut=F Deriv=T AODrv=T NAtomX=    28
   MMem=          88  MDisk=          29 MDiskD=          29
  W3Min=     2246400 MinDsk=     2795480 NBas6D=         240
 NBas2D=       29244    NTT=       28920    LW2=     2040000
    MDV=   523626386 MDiskM=       30186 NBas2p=       24383
 Fully direct method using O(ONN) memory.
 IMap=   1   2   3   4   5   6   7   8   9  10  11  12  13  14  15  16  17  18  19  20
 IMap=  21  22  23  24  25  26  27  28  29  30  31  32  33  34  35  36  37  38  39
 JobTyp=1 Pass  1:  I=  11 to  39 NPSUse=  1 ParTrn=F ParDer=F DoDerP=T.
 Spin components of T(2) and E(2):
     alpha-alpha T2 =       0.5715138589D-01 E2=     -0.1638023675D+00
     alpha-beta  T2 =       0.3618145771D+00 E2=     -0.1089336705D+01
     beta-beta   T2 =       0.5715138589D-01 E2=     -0.1638023675D+00
 The integrals were generated   1 times.
 ANorm=    0.1214955698D+01
 E2 =    -0.1416941440D+01 EUMP2 =    -0.39057215188371D+03
 Leave Link  906 at Fri Sep 17 14:57:48 2021, MaxMem=   524288000 cpu:             251.0 elap:             252.0
 (Enter /opt/gaussian/g16_legacy/l1002.exe)
 Minotr:  Closed shell wavefunction.
          Computing MP2/KS-MP2 derivatives.
          Using Z-Vector for PSCF gradient.
          Skipping F1 and S1 gradient terms here.
          IDoAtm=1111111111111111111111111111
          Frozen-core window.
          Direct CPHF calculation.
          Differentiating once with respect to electric field.
                with respect to dipole field.
          Differentiating once with respect to nuclear coordinates.
          Requested convergence is 1.0D-10 RMS, and 1.0D-09 maximum.
          NewPWx=F KeepS1=T KeepF1=T KeepIn=T MapXYZ=F SortEE=F KeepMc=T.
 Keep R1 ints in memory in canonical form, NReq=425201067.
 FoFCou: FMM=F IPFlag=           0 FMFlag=           0 FMFlg1=           0
         NFxFlg=           0 DoJE=F BraDBF=F KetDBF=F FulRan=T
         wScrn=  0.000000 ICntrl=       600 IOpCl=  0 I1Cent=           0 NGrid=           0
         NMat0=    1 NMatS0=  28920 NMatT0=    0 NMatD0=    1 NMtDS0=    0 NMtDT0=    0
 Symmetry not used in FoFCou.
 Two-electron integral symmetry not used.
          MDV=     524288000 using IRadAn=       5.
          Solving linear equations separately, MaxMat=       0.
          There are     1 degrees of freedom in the 1st order CPHF.  IDoFFX=0 NUNeed=     1.
 LinEq1:  Iter=  0 NonCon=     1 RMS=2.55D-03 Max=3.76D-02 NDo=     1
 AX will form     1 AO Fock derivatives at one time.
 LinEq1:  Iter=  1 NonCon=     1 RMS=6.90D-04 Max=9.75D-03 NDo=     1
 LinEq1:  Iter=  2 NonCon=     1 RMS=1.61D-04 Max=4.14D-03 NDo=     1
 LinEq1:  Iter=  3 NonCon=     1 RMS=4.31D-05 Max=5.07D-04 NDo=     1
 LinEq1:  Iter=  4 NonCon=     1 RMS=1.99D-05 Max=8.55D-04 NDo=     1
 LinEq1:  Iter=  5 NonCon=     1 RMS=5.06D-06 Max=8.27D-05 NDo=     1
 LinEq1:  Iter=  6 NonCon=     1 RMS=1.63D-06 Max=2.68D-05 NDo=     1
 LinEq1:  Iter=  7 NonCon=     1 RMS=4.13D-07 Max=4.18D-06 NDo=     1
 LinEq1:  Iter=  8 NonCon=     1 RMS=1.01D-07 Max=1.86D-06 NDo=     1
 LinEq1:  Iter=  9 NonCon=     1 RMS=2.33D-08 Max=6.32D-07 NDo=     1
 LinEq1:  Iter= 10 NonCon=     1 RMS=6.42D-09 Max=1.62D-07 NDo=     1
 LinEq1:  Iter= 11 NonCon=     1 RMS=1.89D-09 Max=3.63D-08 NDo=     1
 LinEq1:  Iter= 12 NonCon=     1 RMS=4.11D-10 Max=6.99D-09 NDo=     1
 LinEq1:  Iter= 13 NonCon=     1 RMS=1.03D-10 Max=9.11D-10 NDo=     1
 LinEq1:  Iter= 14 NonCon=     1 RMS=3.89D-11 Max=1.35D-09 NDo=     1
 LinEq1:  Iter= 15 NonCon=     0 RMS=1.20D-11 Max=1.69D-10 NDo=     1
 Linear equations converged to 1.000D-10 1.000D-09 after    15 iterations.
 End of Minotr F.D. properties file   721 does not exist.
 End of Minotr F.D. properties file   722 does not exist.
 End of Minotr F.D. properties file   788 does not exist.
 Leave Link 1002 at Fri Sep 17 14:58:27 2021, MaxMem=   524288000 cpu:              37.8 elap:              38.7
 (Enter /opt/gaussian/g16_legacy/l601.exe)
 Copying SCF densities to generalized density rwf, IOpCl= 0 IROHF=0.

 **********************************************************************

            Population analysis using the SCF density.

 **********************************************************************

 Orbital symmetries:
       Occupied  (A) (A) (A) (A) (A) (A) (A) (A) (A) (A) (A) (A)
                 (A) (A) (A) (A) (A) (A) (A) (A) (A) (A) (A) (A)
                 (A) (A) (A) (A) (A) (A) (A) (A) (A) (A) (A) (A)
                 (A) (A) (A)
       Virtual   (A) (A) (A) (A) (A) (A) (A) (A) (A) (A) (A) (A)
                 (A) (A) (A) (A) (A) (A) (A) (A) (A) (A) (A) (A)
                 (A) (A) (A) (A) (A) (A) (A) (A) (A) (A) (A) (A)
                 (A) (A) (A) (A) (A) (A) (A) (A) (A) (A) (A) (A)
                 (A) (A) (A) (A) (A) (A) (A) (A) (A) (A) (A) (A)
                 (A) (A) (A) (A) (A) (A) (A) (A) (A) (A) (A) (A)
                 (A) (A) (A) (A) (A) (A) (A) (A) (A) (A) (A) (A)
                 (A) (A) (A) (A) (A) (A) (A) (A) (A) (A) (A) (A)
                 (A) (A) (A) (A) (A) (A) (A) (A) (A) (A) (A) (A)
                 (A) (A) (A) (A) (A) (A) (A) (A) (A) (A) (A) (A)
                 (A) (A) (A) (A) (A) (A) (A) (A) (A) (A) (A) (A)
                 (A) (A) (A) (A) (A) (A) (A) (A) (A) (A) (A) (A)
                 (A) (A) (A) (A) (A) (A) (A) (A) (A) (A) (A) (A)
                 (A) (A) (A) (A) (A) (A) (A) (A) (A) (A) (A) (A)
                 (A) (A) (A) (A) (A) (A) (A) (A) (A) (A) (A) (A)
                 (A) (A) (A) (A) (A) (A) (A) (A) (A) (A) (A) (A)
                 (A) (A) (A) (A) (A) (A) (A) (A) (A)
 The electronic state is 1-A.
 Alpha  occ. eigenvalues --  -11.23060 -11.22505 -11.22000 -11.21921 -11.21883
 Alpha  occ. eigenvalues --  -11.21651 -11.21553 -11.21484 -11.21456 -11.21438
 Alpha  occ. eigenvalues --   -1.10623  -1.08327  -1.01911  -0.98013  -0.93646
 Alpha  occ. eigenvalues --   -0.91776  -0.86755  -0.82686  -0.70598  -0.69343
 Alpha  occ. eigenvalues --   -0.64584  -0.61545  -0.60102  -0.59030  -0.58087
 Alpha  occ. eigenvalues --   -0.56804  -0.55369  -0.55149  -0.53549  -0.51981
 Alpha  occ. eigenvalues --   -0.51716  -0.51321  -0.50592  -0.49228  -0.48275
 Alpha  occ. eigenvalues --   -0.46013  -0.44273  -0.33356  -0.31525
 Alpha virt. eigenvalues --    0.18456   0.19494   0.22038   0.24454   0.25183
 Alpha virt. eigenvalues --    0.27142   0.28394   0.28931   0.30249   0.30504
 Alpha virt. eigenvalues --    0.31238   0.32117   0.33135   0.33436   0.34031
 Alpha virt. eigenvalues --    0.35677   0.35774   0.36970   0.38998   0.40648
 Alpha virt. eigenvalues --    0.41063   0.42592   0.43320   0.44191   0.45150
 Alpha virt. eigenvalues --    0.51684   0.54046   0.61172   0.62446   0.70138
 Alpha virt. eigenvalues --    0.71102   0.71887   0.74279   0.76417   0.76616
 Alpha virt. eigenvalues --    0.76876   0.78795   0.79455   0.81138   0.82035
 Alpha virt. eigenvalues --    0.83811   0.85654   0.88078   0.91265   0.92025
 Alpha virt. eigenvalues --    0.92895   0.95178   0.97057   0.98262   0.99206
 Alpha virt. eigenvalues --    0.99750   1.00202   1.02301   1.03924   1.06181
 Alpha virt. eigenvalues --    1.07863   1.08640   1.08808   1.11199   1.12391
 Alpha virt. eigenvalues --    1.12562   1.13432   1.14584   1.14927   1.15820
 Alpha virt. eigenvalues --    1.16164   1.16403   1.18223   1.18706   1.20093
 Alpha virt. eigenvalues --    1.20661   1.22067   1.22853   1.25019   1.27542
 Alpha virt. eigenvalues --    1.34170   1.40671   1.41849   1.43739   1.45170
 Alpha virt. eigenvalues --    1.47557   1.53478   1.56255   1.56979   1.58249
 Alpha virt. eigenvalues --    1.59850   1.62719   1.65796   1.69519   1.70789
 Alpha virt. eigenvalues --    1.75330   1.82524   1.92037   1.92196   1.95500
 Alpha virt. eigenvalues --    1.98631   2.01126   2.02847   2.04183   2.08702
 Alpha virt. eigenvalues --    2.09242   2.11120   2.11379   2.13102   2.14504
 Alpha virt. eigenvalues --    2.15427   2.17689   2.19722   2.23579   2.27382
 Alpha virt. eigenvalues --    2.28339   2.29995   2.32201   2.34974   2.35567
 Alpha virt. eigenvalues --    2.35646   2.35785   2.39326   2.39852   2.40350
 Alpha virt. eigenvalues --    2.41287   2.41826   2.43038   2.45159   2.45383
 Alpha virt. eigenvalues --    2.47033   2.48342   2.49334   2.50338   2.54526
 Alpha virt. eigenvalues --    2.56586   2.57722   2.61275   2.62185   2.64353
 Alpha virt. eigenvalues --    2.66341   2.67160   2.72033   2.72994   2.73746
 Alpha virt. eigenvalues --    2.75719   2.77703   2.81091   2.82804   2.85157
 Alpha virt. eigenvalues --    2.87729   2.89154   2.91918   2.93443   2.94436
 Alpha virt. eigenvalues --    2.97095   2.99035   3.01165   3.02600   3.05097
 Alpha virt. eigenvalues --    3.05823   3.06632   3.08507   3.13018   3.15943
 Alpha virt. eigenvalues --    3.17137   3.18164   3.19615   3.20684   3.21264
 Alpha virt. eigenvalues --    3.23190   3.24417   3.26465   3.27243   3.36669
 Alpha virt. eigenvalues --    3.39072   3.44604   3.45621   3.55548   3.57299
 Alpha virt. eigenvalues --    3.58701   3.61058   3.66890   3.73955   3.78200
 Alpha virt. eigenvalues --    3.78869   3.80517   3.81322   3.82335   3.82838
 Alpha virt. eigenvalues --    3.84214   3.85751   3.87657   3.89512   3.91172
 Alpha virt. eigenvalues --    3.95898   4.59095   4.62634   4.74428   4.82816
 Alpha virt. eigenvalues --    4.88838   4.92668   4.93351   5.07549   5.10287
 Alpha virt. eigenvalues --    5.16868
          Condensed to atoms (all electrons):
               1          2          3          4          5          6
     1  C    5.001782   0.413509   0.412355   0.340289  -0.058751  -0.003553
     2  H    0.413509   0.588493  -0.030227  -0.045058  -0.004693   0.002571
     3  H    0.412355  -0.030227   0.571667  -0.040528   0.003238  -0.000016
     4  C    0.340289  -0.045058  -0.040528   4.955057   0.349341  -0.043073
     5  C   -0.058751  -0.004693   0.003238   0.349341   4.896444   0.397379
     6  H   -0.003553   0.002571  -0.000016  -0.043073   0.397379   0.593631
     7  H    0.003676   0.000081  -0.000103  -0.041409   0.406176  -0.027611
     8  H   -0.000530  -0.000276  -0.000030  -0.045802   0.400290  -0.035010
     9  C   -0.044044   0.001918  -0.002232   0.698837  -0.045933  -0.000425
    10  H    0.003079  -0.000114   0.000060  -0.036522  -0.006481   0.000248
    11  C   -0.007062   0.000138  -0.002134  -0.050685   0.003424  -0.000114
    12  H   -0.001829   0.000004  -0.001334  -0.000418   0.000092  -0.000001
    13  H    0.000232  -0.000010  -0.000034   0.000594  -0.000100  -0.000004
    14  H    0.000227   0.000028   0.000172  -0.001412  -0.000116   0.000021
    15  C    0.000597  -0.000016   0.000160  -0.000017  -0.000000  -0.000000
    16  H   -0.000053  -0.000012  -0.000052  -0.000027  -0.000000  -0.000000
    17  H   -0.000041   0.000000   0.000014   0.000001  -0.000000   0.000000
    18  H    0.000077  -0.000001  -0.000076  -0.000002   0.000000  -0.000000
    19  C   -0.003608   0.000615   0.001046   0.000006  -0.000002   0.000000
    20  C   -0.000101  -0.000000  -0.000042   0.000002  -0.000000  -0.000000
    21  H    0.000022  -0.000001  -0.000005  -0.000000   0.000000  -0.000000
    22  H   -0.000003   0.000002  -0.000002   0.000000  -0.000000  -0.000000
    23  H   -0.000004   0.000000   0.000001   0.000000  -0.000000   0.000000
    24  C   -0.063059  -0.000607  -0.000806   0.006130  -0.000158   0.000001
    25  H    0.000004   0.001004   0.000213  -0.000155   0.000010  -0.000002
    26  C    0.326238  -0.044599  -0.039859  -0.057363  -0.000187   0.000027
    27  H   -0.045126  -0.002603   0.004290  -0.001850  -0.000392   0.000093
    28  H   -0.040288   0.004202  -0.002144  -0.001437   0.000317   0.000012
               7          8          9         10         11         12
     1  C    0.003676  -0.000530  -0.044044   0.003079  -0.007062  -0.001829
     2  H    0.000081  -0.000276   0.001918  -0.000114   0.000138   0.000004
     3  H   -0.000103  -0.000030  -0.002232   0.000060  -0.002134  -0.001334
     4  C   -0.041409  -0.045802   0.698837  -0.036522  -0.050685  -0.000418
     5  C    0.406176   0.400290  -0.045933  -0.006481   0.003424   0.000092
     6  H   -0.027611  -0.035010  -0.000425   0.000248  -0.000114  -0.000001
     7  H    0.571049  -0.028078  -0.002738   0.002221   0.000137   0.000004
     8  H   -0.028078   0.594724  -0.001034   0.000123  -0.000100   0.000000
     9  C   -0.002738  -0.001034   4.939946   0.404877   0.337730  -0.041937
    10  H    0.002221   0.000123   0.404877   0.559336  -0.043642   0.003315
    11  C    0.000137  -0.000100   0.337730  -0.043642   4.906211   0.408017
    12  H    0.000004   0.000000  -0.041937   0.003315   0.408017   0.573916
    13  H   -0.000009   0.000015  -0.042834  -0.002646   0.403008  -0.030018
    14  H   -0.000004  -0.000005  -0.044348  -0.000221   0.400029  -0.026862
    15  C   -0.000000  -0.000000   0.000010  -0.000000  -0.000097   0.000009
    16  H    0.000000   0.000000  -0.000032   0.000000   0.000040   0.000571
    17  H    0.000000   0.000000   0.000000   0.000000   0.000002  -0.000006
    18  H   -0.000000   0.000000   0.000000  -0.000000  -0.000003   0.000034
    19  C    0.000000   0.000000   0.000001   0.000000   0.000007  -0.000013
    20  C    0.000000  -0.000000  -0.000000   0.000000  -0.000000   0.000000
    21  H   -0.000000   0.000000  -0.000000  -0.000000   0.000000  -0.000000
    22  H    0.000000  -0.000000  -0.000000   0.000000   0.000000  -0.000000
    23  H    0.000000   0.000000   0.000000   0.000000  -0.000000  -0.000000
    24  C    0.000003  -0.000086   0.000070   0.000002  -0.000032   0.000003
    25  H   -0.000000   0.000012  -0.000002  -0.000000   0.000000  -0.000001
    26  C   -0.000097   0.000811  -0.004367  -0.000116   0.000690  -0.000212
    27  H   -0.000025  -0.000187   0.000514   0.000004  -0.000030  -0.000008
    28  H   -0.000010  -0.000009   0.001215  -0.000044   0.000070  -0.000251
              13         14         15         16         17         18
     1  C    0.000232   0.000227   0.000597  -0.000053  -0.000041   0.000077
     2  H   -0.000010   0.000028  -0.000016  -0.000012   0.000000  -0.000001
     3  H   -0.000034   0.000172   0.000160  -0.000052   0.000014  -0.000076
     4  C    0.000594  -0.001412  -0.000017  -0.000027   0.000001  -0.000002
     5  C   -0.000100  -0.000116  -0.000000  -0.000000  -0.000000   0.000000
     6  H   -0.000004   0.000021  -0.000000  -0.000000   0.000000  -0.000000
     7  H   -0.000009  -0.000004  -0.000000   0.000000   0.000000  -0.000000
     8  H    0.000015  -0.000005  -0.000000   0.000000   0.000000   0.000000
     9  C   -0.042834  -0.044348   0.000010  -0.000032   0.000000   0.000000
    10  H   -0.002646  -0.000221  -0.000000   0.000000   0.000000  -0.000000
    11  C    0.403008   0.400029  -0.000097   0.000040   0.000002  -0.000003
    12  H   -0.030018  -0.026862   0.000009   0.000571  -0.000006   0.000034
    13  H    0.586781  -0.033276  -0.000004   0.000042  -0.000000   0.000000
    14  H   -0.033276   0.584242   0.000002  -0.000008   0.000000  -0.000000
    15  C   -0.000004   0.000002   4.909217   0.406147   0.398273   0.402442
    16  H    0.000042  -0.000008   0.406147   0.568196  -0.026280  -0.030009
    17  H   -0.000000   0.000000   0.398273  -0.026280   0.582515  -0.033089
    18  H    0.000000  -0.000000   0.402442  -0.030009  -0.033089   0.586177
    19  C    0.000000  -0.000000   0.348394  -0.037058  -0.043825  -0.043924
    20  C   -0.000000   0.000000  -0.065375   0.003678  -0.001684  -0.003428
    21  H    0.000000  -0.000000  -0.002140  -0.000072  -0.000371   0.002846
    22  H   -0.000000  -0.000000   0.003695  -0.000108  -0.000079   0.000010
    23  H   -0.000000   0.000000  -0.001106  -0.000023   0.002553  -0.000507
    24  C   -0.000004   0.000002  -0.043321  -0.002870  -0.000842   0.000449
    25  H    0.000000   0.000000   0.003365   0.000059  -0.000126  -0.000110
    26  C    0.000091  -0.000050  -0.007532  -0.001945   0.000188   0.000286
    27  H    0.000000  -0.000000   0.000169   0.000031   0.000032  -0.000012
    28  H   -0.000079   0.000023  -0.002064  -0.001170   0.000056  -0.000043
              19         20         21         22         23         24
     1  C   -0.003608  -0.000101   0.000022  -0.000003  -0.000004  -0.063059
     2  H    0.000615  -0.000000  -0.000001   0.000002   0.000000  -0.000607
     3  H    0.001046  -0.000042  -0.000005  -0.000002   0.000001  -0.000806
     4  C    0.000006   0.000002  -0.000000   0.000000   0.000000   0.006130
     5  C   -0.000002  -0.000000   0.000000  -0.000000  -0.000000  -0.000158
     6  H    0.000000  -0.000000  -0.000000  -0.000000   0.000000   0.000001
     7  H    0.000000   0.000000  -0.000000   0.000000   0.000000   0.000003
     8  H    0.000000  -0.000000   0.000000  -0.000000   0.000000  -0.000086
     9  C    0.000001  -0.000000  -0.000000  -0.000000   0.000000   0.000070
    10  H    0.000000   0.000000  -0.000000   0.000000   0.000000   0.000002
    11  C    0.000007  -0.000000   0.000000   0.000000  -0.000000  -0.000032
    12  H   -0.000013   0.000000  -0.000000  -0.000000  -0.000000   0.000003
    13  H    0.000000  -0.000000   0.000000  -0.000000  -0.000000  -0.000004
    14  H   -0.000000   0.000000  -0.000000  -0.000000   0.000000   0.000002
    15  C    0.348394  -0.065375  -0.002140   0.003695  -0.001106  -0.043321
    16  H   -0.037058   0.003678  -0.000072  -0.000108  -0.000023  -0.002870
    17  H   -0.043825  -0.001684  -0.000371  -0.000079   0.002553  -0.000842
    18  H   -0.043924  -0.003428   0.002846   0.000010  -0.000507   0.000449
    19  C    4.918249   0.352274  -0.044304  -0.040394  -0.045770   0.698180
    20  C    0.352274   4.903246   0.396991   0.405423   0.399263  -0.044860
    21  H   -0.044304   0.396991   0.594304  -0.027365  -0.034906  -0.000547
    22  H   -0.040394   0.405423  -0.027365   0.568023  -0.027561  -0.002384
    23  H   -0.045770   0.399263  -0.034906  -0.027561   0.593081  -0.001136
    24  C    0.698180  -0.044860  -0.000547  -0.002384  -0.001136   4.961511
    25  H   -0.036145  -0.006748   0.000235   0.002178   0.000150   0.402010
    26  C   -0.048263   0.003152  -0.000086   0.000146  -0.000124   0.339913
    27  H    0.000914  -0.000102  -0.000002  -0.000011   0.000012  -0.043353
    28  H    0.000822   0.000071  -0.000004   0.000006   0.000004  -0.043821
              25         26         27         28
     1  C    0.000004   0.326238  -0.045126  -0.040288
     2  H    0.001004  -0.044599  -0.002603   0.004202
     3  H    0.000213  -0.039859   0.004290  -0.002144
     4  C   -0.000155  -0.057363  -0.001850  -0.001437
     5  C    0.000010  -0.000187  -0.000392   0.000317
     6  H   -0.000002   0.000027   0.000093   0.000012
     7  H   -0.000000  -0.000097  -0.000025  -0.000010
     8  H    0.000012   0.000811  -0.000187  -0.000009
     9  C   -0.000002  -0.004367   0.000514   0.001215
    10  H   -0.000000  -0.000116   0.000004  -0.000044
    11  C    0.000000   0.000690  -0.000030   0.000070
    12  H   -0.000001  -0.000212  -0.000008  -0.000251
    13  H    0.000000   0.000091   0.000000  -0.000079
    14  H    0.000000  -0.000050  -0.000000   0.000023
    15  C    0.003365  -0.007532   0.000169  -0.002064
    16  H    0.000059  -0.001945   0.000031  -0.001170
    17  H   -0.000126   0.000188   0.000032   0.000056
    18  H   -0.000110   0.000286  -0.000012  -0.000043
    19  C   -0.036145  -0.048263   0.000914   0.000822
    20  C   -0.006748   0.003152  -0.000102   0.000071
    21  H    0.000235  -0.000086  -0.000002  -0.000004
    22  H    0.002178   0.000146  -0.000011   0.000006
    23  H    0.000150  -0.000124   0.000012   0.000004
    24  C    0.402010   0.339913  -0.043353  -0.043821
    25  H    0.558546  -0.041276  -0.003488   0.003232
    26  C   -0.041276   4.982327   0.413769   0.414875
    27  H   -0.003488   0.413769   0.588503  -0.029602
    28  H    0.003232   0.414875  -0.029602   0.571233
 Mulliken charges:
               1
     1  C   -0.234030
     2  H    0.115652
     3  H    0.126407
     4  C    0.015501
     5  C   -0.339897
     6  H    0.115825
     7  H    0.116735
     8  H    0.115172
     9  C   -0.155192
    10  H    0.116519
    11  C   -0.355606
    12  H    0.116922
    13  H    0.118253
    14  H    0.121556
    15  C   -0.350807
    16  H    0.120955
    17  H    0.122710
    18  H    0.118885
    19  C    0.022798
    20  C   -0.341758
    21  H    0.115406
    22  H    0.118424
    23  H    0.116072
    24  C   -0.160388
    25  H    0.117037
    26  C   -0.236438
    27  H    0.118459
    28  H    0.124827
 Sum of Mulliken charges =  -0.00000
 Mulliken charges with hydrogens summed into heavy atoms:
               1
     1  C    0.008030
     4  C    0.015501
     5  C    0.007835
     9  C   -0.038673
    11  C    0.001125
    15  C    0.011743
    19  C    0.022798
    20  C    0.008143
    24  C   -0.043351
    26  C    0.006848
 Electronic spatial extent (au):  <R**2>=           2423.6677
 Charge=             -0.0000 electrons
 Dipole moment (field-independent basis, Debye):
    X=             -0.2949    Y=              0.1262    Z=             -0.0059  Tot=              0.3208
 Quadrupole moment (field-independent basis, Debye-Ang):
   XX=            -64.5121   YY=            -63.6033   ZZ=            -67.0537
   XY=             -0.6109   XZ=             -0.8626   YZ=             -0.4853
 Traceless Quadrupole moment (field-independent basis, Debye-Ang):
   XX=              0.5443   YY=              1.4530   ZZ=             -1.9973
   XY=             -0.6109   XZ=             -0.8626   YZ=             -0.4853
 Octapole moment (field-independent basis, Debye-Ang**2):
  XXX=             -1.3670  YYY=             -2.7188  ZZZ=              0.1844  XYY=              0.5722
  XXY=              4.5371  XXZ=             -2.6519  XZZ=             -1.5757  YZZ=              1.2280
  YYZ=              1.3701  XYZ=              0.7519
 Hexadecapole moment (field-independent basis, Debye-Ang**3):
 XXXX=          -2492.2993 YYYY=           -696.1219 ZZZZ=           -174.8254 XXXY=              2.3467
 XXXZ=            -11.9350 YYYX=              9.3566 YYYZ=             -3.0496 ZZZX=              0.8388
 ZZZY=             -0.0646 XXYY=           -530.4708 XXZZ=           -456.3145 YYZZ=           -139.1725
 XXYZ=             -4.2418 YYXZ=             -3.2009 ZZXY=             -4.7008
 N-N= 5.164336590107D+02 E-N=-1.937501172933D+03  KE= 3.886259900484D+02
 No NMR shielding tensors so no spin-rotation constants.
 Leave Link  601 at Fri Sep 17 14:58:28 2021, MaxMem=   524288000 cpu:               0.4 elap:               0.7
 (Enter /opt/gaussian/g16_legacy/l701.exe)
 ... and contract with generalized density number  2.
 Compute integral first derivatives.
 Leave Link  701 at Fri Sep 17 14:58:28 2021, MaxMem=   524288000 cpu:               0.3 elap:               0.3
 (Enter /opt/gaussian/g16_legacy/l702.exe)
 L702 exits ... SP integral derivatives will be done elsewhere.
 Leave Link  702 at Fri Sep 17 14:58:28 2021, MaxMem=   524288000 cpu:               0.0 elap:               0.1
 (Enter /opt/gaussian/g16_legacy/l703.exe)
 Integral derivatives from FoFJK, PRISM(SPDF).
 Compute integral first derivatives, UseDBF=F ICtDFT=           0.
 Calling FoFJK, ICntrl=  10002127 FMM=F ISym2X=0 I1Cent= 0 IOpClX= 0 NMat=1 NMatS=1 NMatT=0.
 FoFJK:  IHMeth= 1 ICntrl=10002127 DoSepK=F KAlg= 0 I1Cent=           0 FoldK=F
 IRaf=         0 NMat=       1 IRICut=       1 DoRegI=T DoRafI=F ISym2E= 0 IDoP0=0 IntGTp=1.
 FoFCou: FMM=F IPFlag=           0 FMFlag=      100000 FMFlg1=         800
         NFxFlg=           0 DoJE=F BraDBF=F KetDBF=F FulRan=T
         wScrn=  0.000000 ICntrl=  10002127 IOpCl=  0 I1Cent=           0 NGrid=           0
         NMat0=    1 NMatS0=      1 NMatT0=    0 NMatD0=    1 NMtDS0=    0 NMtDT0=    0
 Symmetry not used in FoFCou.
 Leave Link  703 at Fri Sep 17 14:59:04 2021, MaxMem=   524288000 cpu:              35.1 elap:              36.1
 (Enter /opt/gaussian/g16_legacy/l716.exe)
 Dipole        =-9.11186867D-02 6.69064983D-02-4.77285434D-03
 ***** Axes restored to original set *****
 -------------------------------------------------------------------
 Center     Atomic                   Forces (Hartrees/Bohr)
 Number     Number              X              Y              Z
 -------------------------------------------------------------------
      1        6           0.008466532   -0.000345543   -0.004201467
      2        1           0.000308957   -0.002183178    0.003110363
      3        1          -0.000647562   -0.001055003    0.004486600
      4        6           0.003127520    0.004649362   -0.003217573
      5        6           0.003015292   -0.000003916    0.001128405
      6        1          -0.001290571   -0.001108628    0.002911663
      7        1          -0.003237573   -0.002082001   -0.001439459
      8        1          -0.000091677    0.002596146   -0.002118470
      9        6          -0.002410815    0.000007358    0.002889465
     10        1          -0.003078922    0.001654325    0.000654710
     11        6          -0.001171433   -0.002208488   -0.001009394
     12        1           0.002221919    0.002495337    0.000350022
     13        1          -0.000119328    0.001032722   -0.003273933
     14        1          -0.000621498   -0.003186046    0.001086509
     15        6           0.004489602   -0.000013492    0.000932951
     16        1          -0.003123482    0.001218176    0.000895611
     17        1           0.000476505   -0.000433865   -0.003070917
     18        1          -0.001783260   -0.000357209    0.003180146
     19        6          -0.000793445    0.004844933   -0.001972746
     20        6          -0.001086234    0.003228872   -0.000071350
     21        1          -0.001579935   -0.001720412    0.002648334
     22        1           0.003283558   -0.002851555    0.000274401
     23        1           0.000352741    0.000012569   -0.003344647
     24        6           0.001024578   -0.000205306    0.005115212
     25        1          -0.000796611   -0.002888609   -0.001680740
     26        6          -0.007041236   -0.003126169    0.001863183
     27        1           0.002085088   -0.000091718   -0.002714372
     28        1           0.000021289    0.002121339   -0.003412509
 -------------------------------------------------------------------
 Cartesian Forces:  Max     0.008466532 RMS     0.002569528
 Leave Link  716 at Fri Sep 17 14:59:04 2021, MaxMem=   524288000 cpu:               0.1 elap:               0.1
 (Enter /opt/gaussian/g16_legacy/l103.exe)

 GradGradGradGradGradGradGradGradGradGradGradGradGradGradGradGradGradGrad
 Berny optimization.
 FormGI is forming the generalized inverse of G from B-inverse, IUseBI=4.
 Internal  Forces:  Max     0.004888735 RMS     0.001916167
 Search for a local minimum.
 Step number   1 out of a maximum of  138
 All quantities printed in internal units (Hartrees-Bohrs-Radians)
 RMS Force = .19162D-02 SwitMx=.10000D-02 MixMth= 1
 Mixed Optimization -- RFO/linear search
 Second derivative matrix not updated -- first step.
 ITU=  0
     Eigenvalues ---    0.00342   0.00570   0.00670   0.00680   0.00693
     Eigenvalues ---    0.00713   0.00817   0.01219   0.01286   0.01569
     Eigenvalues ---    0.01641   0.02779   0.02785   0.04018   0.04138
     Eigenvalues ---    0.05349   0.05399   0.06978   0.07035   0.07091
     Eigenvalues ---    0.07092   0.07269   0.07301   0.07347   0.07504
     Eigenvalues ---    0.09278   0.09361   0.12767   0.12843   0.15999
     Eigenvalues ---    0.15999   0.16000   0.16000   0.16000   0.16000
     Eigenvalues ---    0.16000   0.16000   0.16000   0.16000   0.16000
     Eigenvalues ---    0.16000   0.16000   0.16000   0.21859   0.21866
     Eigenvalues ---    0.22000   0.22000   0.24994   0.24997   0.24998
     Eigenvalues ---    0.24999   0.29237   0.30873   0.31630   0.31709
     Eigenvalues ---    0.31805   0.31962   0.32786   0.33865   0.33967
     Eigenvalues ---    0.34069   0.34196   0.34221   0.34227   0.34246
     Eigenvalues ---    0.34247   0.34250   0.34254   0.34266   0.34269
     Eigenvalues ---    0.34305   0.34339   0.34545   0.34555   0.34793
     Eigenvalues ---    0.34855   0.55495   0.55578
 RFO step:  Lambda=-2.95799079D-03 EMin= 3.42360094D-03
 Linear search not attempted -- first point.
 Iteration  1 RMS(Cart)=  0.03969913 RMS(Int)=  0.00072313
 Iteration  2 RMS(Cart)=  0.00093502 RMS(Int)=  0.00016599
 Iteration  3 RMS(Cart)=  0.00000043 RMS(Int)=  0.00016599
 ITry= 1 IFail=0 DXMaxC= 1.76D-01 DCOld= 1.00D+10 DXMaxT= 3.00D-01 DXLimC= 3.00D+00 Rises=F
 Variable       Old X    -DE/DX   Delta X   Delta X   Delta X     New X
                                 (Linear)    (Quad)   (Total)
    R1        2.07559  -0.00279   0.00000  -0.00817  -0.00817   2.06742
    R2        2.07213  -0.00328   0.00000  -0.00954  -0.00954   2.06260
    R3        2.86256  -0.00352   0.00000  -0.01130  -0.01130   2.85126
    R4        2.89510   0.00171   0.00000   0.00581   0.00581   2.90091
    R5        2.84826  -0.00046   0.00000  -0.00145  -0.00145   2.84681
    R6        2.54695  -0.00398   0.00000  -0.00714  -0.00714   2.53982
    R7        2.06904  -0.00214   0.00000  -0.00619  -0.00619   2.06285
    R8        2.06960  -0.00372   0.00000  -0.01077  -0.01077   2.05882
    R9        2.06819  -0.00175   0.00000  -0.00505  -0.00505   2.06314
   R10        2.05910  -0.00217   0.00000  -0.00619  -0.00619   2.05292
   R11        2.82729   0.00305   0.00000   0.00922   0.00922   2.83651
   R12        2.06404  -0.00290   0.00000  -0.00831  -0.00831   2.05573
   R13        2.06883  -0.00257   0.00000  -0.00743  -0.00743   2.06140
   R14        2.06762  -0.00155   0.00000  -0.00449  -0.00449   2.06313
   R15        2.06420  -0.00285   0.00000  -0.00817  -0.00817   2.05602
   R16        2.06878  -0.00184   0.00000  -0.00533  -0.00533   2.06345
   R17        2.07000  -0.00263   0.00000  -0.00763  -0.00763   2.06237
   R18        2.84213  -0.00052   0.00000  -0.00163  -0.00163   2.84050
   R19        2.84680  -0.00077   0.00000  -0.00239  -0.00239   2.84441
   R20        2.54622  -0.00324   0.00000  -0.00579  -0.00579   2.54043
   R21        2.06916  -0.00200   0.00000  -0.00580  -0.00580   2.06336
   R22        2.06948  -0.00397   0.00000  -0.01149  -0.01149   2.05799
   R23        2.06917  -0.00201   0.00000  -0.00581  -0.00581   2.06336
   R24        2.06013  -0.00200   0.00000  -0.00571  -0.00571   2.05442
   R25        2.84502  -0.00149   0.00000  -0.00465  -0.00465   2.84037
   R26        2.07386  -0.00241   0.00000  -0.00703  -0.00703   2.06683
   R27        2.06910  -0.00275   0.00000  -0.00796  -0.00796   2.06114
    A1        1.82996   0.00206   0.00000   0.02244   0.02228   1.85224
    A2        1.90264  -0.00069   0.00000  -0.00272  -0.00271   1.89993
    A3        1.92004  -0.00195   0.00000  -0.01724  -0.01727   1.90276
    A4        1.93017   0.00043   0.00000   0.00925   0.00929   1.93946
    A5        1.91829  -0.00277   0.00000  -0.02017  -0.02020   1.89809
    A6        1.95838   0.00283   0.00000   0.00910   0.00914   1.96752
    A7        2.00829   0.00237   0.00000   0.00969   0.00912   2.01742
    A8        2.17074  -0.00489   0.00000  -0.01897  -0.01950   2.15125
    A9        2.10397   0.00253   0.00000   0.01038   0.00980   2.11377
   A10        1.92473   0.00167   0.00000   0.00907   0.00909   1.93382
   A11        1.95922  -0.00262   0.00000  -0.01307  -0.01303   1.94619
   A12        1.92813   0.00227   0.00000   0.01208   0.01211   1.94023
   A13        1.87754   0.00109   0.00000   0.01020   0.01024   1.88778
   A14        1.89501  -0.00307   0.00000  -0.02474  -0.02473   1.87028
   A15        1.87705   0.00055   0.00000   0.00561   0.00565   1.88270
   A16        2.06981  -0.00195   0.00000  -0.01347  -0.01348   2.05633
   A17        2.22508  -0.00187   0.00000  -0.00837  -0.00838   2.21670
   A18        1.98816   0.00383   0.00000   0.02200   0.02198   2.01014
   A19        1.98121  -0.00299   0.00000  -0.01841  -0.01832   1.96289
   A20        1.91006   0.00237   0.00000   0.01554   0.01549   1.92555
   A21        1.91729   0.00394   0.00000   0.02324   0.02320   1.94049
   A22        1.87266   0.00053   0.00000   0.00497   0.00503   1.87770
   A23        1.89279  -0.00094   0.00000  -0.00755  -0.00745   1.88534
   A24        1.88720  -0.00309   0.00000  -0.01887  -0.01904   1.86816
   A25        1.88438   0.00024   0.00000   0.00332   0.00334   1.88772
   A26        1.86375   0.00200   0.00000   0.01695   0.01696   1.88071
   A27        1.97967  -0.00222   0.00000  -0.01018  -0.01016   1.96951
   A28        1.89081  -0.00241   0.00000  -0.02170  -0.02169   1.86912
   A29        1.92155   0.00231   0.00000   0.01173   0.01175   1.93330
   A30        1.92079   0.00000   0.00000  -0.00089  -0.00088   1.91992
   A31        1.99467   0.00146   0.00000   0.00582   0.00580   2.00047
   A32        2.18261  -0.00329   0.00000  -0.01295  -0.01297   2.16964
   A33        2.10586   0.00182   0.00000   0.00724   0.00722   2.11308
   A34        1.92492   0.00220   0.00000   0.01235   0.01238   1.93730
   A35        1.96061  -0.00277   0.00000  -0.01384  -0.01380   1.94681
   A36        1.92343   0.00175   0.00000   0.00879   0.00881   1.93225
   A37        1.87922   0.00092   0.00000   0.00933   0.00937   1.88859
   A38        1.89479  -0.00313   0.00000  -0.02536  -0.02535   1.86944
   A39        1.87885   0.00091   0.00000   0.00789   0.00793   1.88678
   A40        2.06711  -0.00167   0.00000  -0.01182  -0.01222   2.05490
   A41        2.22721  -0.00226   0.00000  -0.00998  -0.01039   2.21682
   A42        1.98873   0.00395   0.00000   0.02259   0.02216   2.01090
   A43        1.94453   0.00330   0.00000   0.01362   0.01365   1.95817
   A44        1.92095  -0.00239   0.00000  -0.01482  -0.01502   1.90593
   A45        1.92605  -0.00264   0.00000  -0.02495  -0.02502   1.90104
   A46        1.88057   0.00061   0.00000   0.01710   0.01714   1.89771
   A47        1.94652  -0.00052   0.00000  -0.00235  -0.00230   1.94423
   A48        1.84188   0.00155   0.00000   0.01192   0.01166   1.85353
    D1        0.63964  -0.00059   0.00000   0.02156   0.02131   0.66096
    D2       -2.48155  -0.00156   0.00000  -0.04063  -0.04043  -2.52198
    D3        2.64280   0.00174   0.00000   0.05211   0.05190   2.69470
    D4       -0.47839   0.00076   0.00000  -0.01008  -0.00985  -0.48824
[...]
                 (A) (A) (A) (A) (A) (A) (A) (A) (A) (A) (A) (A)
                 (A) (A) (A) (A) (A) (A) (A) (A) (A) (A) (A) (A)
                 (A) (A) (A) (A) (A) (A) (A) (A) (A) (A) (A) (A)
                 (A) (A) (A) (A) (A) (A) (A) (A) (A) (A) (A) (A)
                 (A) (A) (A) (A) (A) (A) (A) (A) (A) (A) (A) (A)
                 (A) (A) (A) (A) (A) (A) (A) (A) (A) (A) (A) (A)
                 (A) (A) (A) (A) (A) (A) (A) (A) (A) (A) (A) (A)
                 (A) (A) (A) (A) (A) (A) (A) (A) (A) (A) (A) (A)
                 (A) (A) (A) (A) (A) (A) (A) (A) (A) (A) (A) (A)
                 (A) (A) (A) (A) (A) (A) (A) (A) (A) (A) (A) (A)
                 (A) (A) (A) (A) (A) (A) (A) (A) (A) (A) (A) (A)
                 (A) (A) (A) (A) (A) (A) (A) (A) (A) (A) (A) (A)
                 (A) (A) (A) (A) (A) (A) (A) (A) (A)
 The electronic state is 1-A.
 Alpha  occ. eigenvalues --  -11.23020 -11.22460 -11.21868 -11.21730 -11.21712
 Alpha  occ. eigenvalues --  -11.21539 -11.21506 -11.21436 -11.21417 -11.21348
 Alpha  occ. eigenvalues --   -1.10821  -1.08492  -1.01823  -0.98143  -0.93838
 Alpha  occ. eigenvalues --   -0.91939  -0.86963  -0.82855  -0.70494  -0.69519
 Alpha  occ. eigenvalues --   -0.64988  -0.61512  -0.60591  -0.58878  -0.58366
 Alpha  occ. eigenvalues --   -0.56774  -0.55298  -0.54966  -0.53295  -0.52261
 Alpha  occ. eigenvalues --   -0.51859  -0.51173  -0.50832  -0.49581  -0.48519
 Alpha  occ. eigenvalues --   -0.46073  -0.44624  -0.33371  -0.31514
 Alpha virt. eigenvalues --    0.18142   0.19779   0.22152   0.24486   0.25192
 Alpha virt. eigenvalues --    0.27439   0.28535   0.28922   0.30318   0.30811
 Alpha virt. eigenvalues --    0.31477   0.32261   0.33202   0.33794   0.34383
 Alpha virt. eigenvalues --    0.35458   0.36114   0.36962   0.39185   0.40602
 Alpha virt. eigenvalues --    0.41328   0.42631   0.43685   0.44252   0.45395
 Alpha virt. eigenvalues --    0.51702   0.54378   0.61070   0.62576   0.70520
 Alpha virt. eigenvalues --    0.71073   0.72196   0.73768   0.76075   0.76177
 Alpha virt. eigenvalues --    0.76620   0.79010   0.79474   0.81070   0.82306
 Alpha virt. eigenvalues --    0.83713   0.85579   0.89117   0.91091   0.91343
 Alpha virt. eigenvalues --    0.92820   0.94745   0.97065   0.98284   0.98818
 Alpha virt. eigenvalues --    0.99710   1.00468   1.01911   1.03844   1.06577
 Alpha virt. eigenvalues --    1.08019   1.08221   1.09393   1.11664   1.12687
 Alpha virt. eigenvalues --    1.13026   1.13870   1.14856   1.15402   1.16045
 Alpha virt. eigenvalues --    1.16257   1.16619   1.18722   1.19116   1.20671
 Alpha virt. eigenvalues --    1.20953   1.23032   1.23885   1.25765   1.28153
 Alpha virt. eigenvalues --    1.34331   1.41722   1.42153   1.44890   1.46395
 Alpha virt. eigenvalues --    1.48456   1.54135   1.55360   1.57256   1.58165
 Alpha virt. eigenvalues --    1.61459   1.63397   1.66485   1.69046   1.69645
 Alpha virt. eigenvalues --    1.73917   1.82243   1.91111   1.93363   1.96231
 Alpha virt. eigenvalues --    1.98688   2.01467   2.02277   2.03942   2.08565
 Alpha virt. eigenvalues --    2.09706   2.10748   2.11744   2.13037   2.14903
 Alpha virt. eigenvalues --    2.15780   2.16940   2.19854   2.23666   2.28347
 Alpha virt. eigenvalues --    2.29590   2.30325   2.33235   2.35347   2.35688
 Alpha virt. eigenvalues --    2.35978   2.36098   2.38923   2.40264   2.41259
 Alpha virt. eigenvalues --    2.42195   2.43169   2.44154   2.45371   2.46084
 Alpha virt. eigenvalues --    2.47201   2.49167   2.49622   2.51174   2.54099
 Alpha virt. eigenvalues --    2.57315   2.58365   2.61888   2.63241   2.64107
 Alpha virt. eigenvalues --    2.67127   2.68175   2.71776   2.73352   2.73474
 Alpha virt. eigenvalues --    2.75815   2.77410   2.80796   2.82635   2.85354
 Alpha virt. eigenvalues --    2.87137   2.89441   2.92178   2.93739   2.94867
 Alpha virt. eigenvalues --    2.97869   2.99094   3.00960   3.02677   3.05807
 Alpha virt. eigenvalues --    3.06402   3.07703   3.09315   3.13762   3.17093
 Alpha virt. eigenvalues --    3.17589   3.19238   3.20046   3.21242   3.22334
 Alpha virt. eigenvalues --    3.24167   3.25050   3.26607   3.27420   3.37866
 Alpha virt. eigenvalues --    3.40355   3.46023   3.46902   3.56200   3.58183
 Alpha virt. eigenvalues --    3.59499   3.62406   3.67928   3.75494   3.78622
 Alpha virt. eigenvalues --    3.80005   3.81570   3.82569   3.83286   3.83898
 Alpha virt. eigenvalues --    3.84750   3.86481   3.87645   3.89820   3.91558
 Alpha virt. eigenvalues --    3.97645   4.59389   4.63170   4.74472   4.82572
 Alpha virt. eigenvalues --    4.88928   4.92582   4.93409   5.07840   5.10766
 Alpha virt. eigenvalues --    5.17766
          Condensed to atoms (all electrons):
               1          2          3          4          5          6
     1  C    5.004768   0.414473   0.411714   0.337355  -0.056085  -0.003698
     2  H    0.414473   0.587507  -0.028296  -0.046308  -0.004587   0.002378
     3  H    0.411714  -0.028296   0.572983  -0.038988   0.003071  -0.000034
     4  C    0.337355  -0.046308  -0.038988   4.952603   0.351934  -0.041506
     5  C   -0.056085  -0.004587   0.003071   0.351934   4.891804   0.397495
     6  H   -0.003698   0.002378  -0.000034  -0.041506   0.397495   0.591921
     7  H    0.003801   0.000106  -0.000108  -0.042765   0.407087  -0.026764
     8  H    0.000011  -0.000489  -0.000005  -0.045679   0.400946  -0.037541
     9  C   -0.047991   0.002531  -0.001860   0.697840  -0.046054  -0.000373
    10  H    0.003272  -0.000118   0.000031  -0.037842  -0.006525   0.000216
    11  C   -0.007749   0.000160  -0.002811  -0.050271   0.003364  -0.000105
    12  H   -0.001745   0.000030  -0.001657  -0.000691   0.000109   0.000002
    13  H    0.000310  -0.000013  -0.000067  -0.000247  -0.000095  -0.000004
    14  H    0.000152   0.000017   0.000184  -0.000627  -0.000106   0.000017
    15  C    0.000587  -0.000015   0.000200  -0.000018  -0.000000   0.000000
    16  H   -0.000302  -0.000016  -0.000131  -0.000011  -0.000000  -0.000000
    17  H   -0.000040   0.000000   0.000022   0.000001  -0.000000   0.000000
    18  H    0.000130  -0.000002  -0.000135  -0.000005   0.000000  -0.000000
    19  C   -0.004325   0.000787   0.001388   0.000041  -0.000003   0.000000
    20  C   -0.000099  -0.000004  -0.000043   0.000001  -0.000000  -0.000000
    21  H    0.000024  -0.000002  -0.000007  -0.000000   0.000000  -0.000000
    22  H   -0.000003   0.000003  -0.000002   0.000000  -0.000000  -0.000000
    23  H   -0.000005   0.000000   0.000002   0.000000  -0.000000   0.000000
    24  C   -0.061827  -0.000900  -0.000504   0.006443  -0.000149   0.000004
    25  H    0.000175   0.001011   0.000111  -0.000152   0.000010  -0.000001
    26  C    0.332330  -0.046074  -0.041801  -0.055544  -0.000661   0.000086
    27  H   -0.046841  -0.001931   0.004515  -0.002075  -0.000289   0.000058
    28  H   -0.042369   0.004477  -0.003118  -0.001813   0.000243   0.000006
               7          8          9         10         11         12
     1  C    0.003801   0.000011  -0.047991   0.003272  -0.007749  -0.001745
     2  H    0.000106  -0.000489   0.002531  -0.000118   0.000160   0.000030
     3  H   -0.000108  -0.000005  -0.001860   0.000031  -0.002811  -0.001657
     4  C   -0.042765  -0.045679   0.697840  -0.037842  -0.050271  -0.000691
     5  C    0.407087   0.400946  -0.046054  -0.006525   0.003364   0.000109
     6  H   -0.026764  -0.037541  -0.000373   0.000216  -0.000105   0.000002
     7  H    0.568858  -0.027466  -0.002890   0.002385   0.000132   0.000005
     8  H   -0.027466   0.596034  -0.001011   0.000135  -0.000101  -0.000003
     9  C   -0.002890  -0.001011   4.938970   0.404494   0.340494  -0.043903
    10  H    0.002385   0.000135   0.404494   0.558671  -0.041279   0.003299
    11  C    0.000132  -0.000101   0.340494  -0.041279   4.900974   0.409079
    12  H    0.000005  -0.000003  -0.043903   0.003299   0.409079   0.577164
    13  H   -0.000006   0.000017  -0.041805  -0.001264   0.402169  -0.029956
    14  H   -0.000006  -0.000004  -0.041523  -0.001122   0.401144  -0.027132
    15  C   -0.000000  -0.000000   0.000015  -0.000000  -0.000147  -0.000000
    16  H    0.000000   0.000000  -0.000045   0.000000   0.000074   0.000412
    17  H    0.000000  -0.000000   0.000000   0.000000   0.000003  -0.000008
    18  H   -0.000000   0.000000   0.000000  -0.000000  -0.000009   0.000079
    19  C    0.000000   0.000000  -0.000001   0.000000   0.000013  -0.000026
    20  C    0.000000  -0.000000  -0.000000   0.000000  -0.000000   0.000000
    21  H   -0.000000   0.000000   0.000000  -0.000000  -0.000000  -0.000000
    22  H    0.000000  -0.000000  -0.000000   0.000000   0.000000  -0.000000
    23  H    0.000000   0.000000   0.000000   0.000000   0.000000  -0.000000
    24  C    0.000004  -0.000111   0.000114   0.000002  -0.000031   0.000026
    25  H   -0.000000   0.000015  -0.000002  -0.000000   0.000000  -0.000002
    26  C   -0.000109   0.000609  -0.004911  -0.000113   0.000577  -0.000737
    27  H   -0.000050   0.000197   0.000760   0.000001  -0.000033  -0.000010
    28  H   -0.000005  -0.000015   0.001406  -0.000046  -0.000082  -0.000475
              13         14         15         16         17         18
     1  C    0.000310   0.000152   0.000587  -0.000302  -0.000040   0.000130
     2  H   -0.000013   0.000017  -0.000015  -0.000016   0.000000  -0.000002
     3  H   -0.000067   0.000184   0.000200  -0.000131   0.000022  -0.000135
     4  C   -0.000247  -0.000627  -0.000018  -0.000011   0.000001  -0.000005
     5  C   -0.000095  -0.000106  -0.000000  -0.000000  -0.000000   0.000000
     6  H   -0.000004   0.000017   0.000000  -0.000000   0.000000  -0.000000
     7  H   -0.000006  -0.000006  -0.000000   0.000000   0.000000  -0.000000
     8  H    0.000017  -0.000004  -0.000000   0.000000  -0.000000   0.000000
     9  C   -0.041805  -0.041523   0.000015  -0.000045   0.000000   0.000000
    10  H   -0.001264  -0.001122  -0.000000   0.000000   0.000000  -0.000000
    11  C    0.402169   0.401144  -0.000147   0.000074   0.000003  -0.000009
    12  H   -0.029956  -0.027132  -0.000000   0.000412  -0.000008   0.000079
    13  H    0.586720  -0.035462  -0.000015   0.000114  -0.000000   0.000000
    14  H   -0.035462   0.583648   0.000004  -0.000013   0.000000  -0.000000
    15  C   -0.000015   0.000004   4.907254   0.407154   0.399852   0.401208
    16  H    0.000114  -0.000013   0.407154   0.568221  -0.026060  -0.028659
    17  H   -0.000000   0.000000   0.399852  -0.026060   0.584669  -0.035759
    18  H    0.000000  -0.000000   0.401208  -0.028659  -0.035759   0.587442
    19  C    0.000001  -0.000000   0.350332  -0.037848  -0.043537  -0.043385
    20  C   -0.000000   0.000000  -0.064931   0.003725  -0.002223  -0.002632
    21  H    0.000000  -0.000000  -0.001975  -0.000068  -0.000456   0.002756
    22  H   -0.000000  -0.000000   0.003785  -0.000113  -0.000053  -0.000032
    23  H   -0.000000   0.000000  -0.001201  -0.000031   0.002766  -0.000476
    24  C   -0.000009   0.000002  -0.044248  -0.003253  -0.000365  -0.000031
    25  H    0.000000   0.000000   0.003528   0.000061  -0.000121  -0.000121
    26  C    0.000163  -0.000037  -0.008144  -0.002069   0.000117   0.000367
    27  H   -0.000000  -0.000000   0.000195   0.000058   0.000021  -0.000014
    28  H   -0.000140   0.000037  -0.002693  -0.001675   0.000113  -0.000076
              19         20         21         22         23         24
     1  C   -0.004325  -0.000099   0.000024  -0.000003  -0.000005  -0.061827
     2  H    0.000787  -0.000004  -0.000002   0.000003   0.000000  -0.000900
     3  H    0.001388  -0.000043  -0.000007  -0.000002   0.000002  -0.000504
     4  C    0.000041   0.000001  -0.000000   0.000000   0.000000   0.006443
     5  C   -0.000003  -0.000000   0.000000  -0.000000  -0.000000  -0.000149
     6  H    0.000000  -0.000000  -0.000000  -0.000000   0.000000   0.000004
     7  H    0.000000   0.000000  -0.000000   0.000000   0.000000   0.000004
     8  H    0.000000  -0.000000   0.000000  -0.000000   0.000000  -0.000111
     9  C   -0.000001  -0.000000   0.000000  -0.000000   0.000000   0.000114
    10  H    0.000000   0.000000  -0.000000   0.000000   0.000000   0.000002
    11  C    0.000013  -0.000000  -0.000000   0.000000   0.000000  -0.000031
    12  H   -0.000026   0.000000  -0.000000  -0.000000  -0.000000   0.000026
    13  H    0.000001  -0.000000   0.000000  -0.000000  -0.000000  -0.000009
    14  H   -0.000000   0.000000  -0.000000  -0.000000   0.000000   0.000002
    15  C    0.350332  -0.064931  -0.001975   0.003785  -0.001201  -0.044248
    16  H   -0.037848   0.003725  -0.000068  -0.000113  -0.000031  -0.003253
    17  H   -0.043537  -0.002223  -0.000456  -0.000053   0.002766  -0.000365
    18  H   -0.043385  -0.002632   0.002756  -0.000032  -0.000476  -0.000031
    19  C    4.914192   0.353753  -0.043899  -0.041639  -0.044274   0.697734
    20  C    0.353753   4.900112   0.398238   0.406218   0.398811  -0.044415
    21  H   -0.043899   0.398238   0.594542  -0.026703  -0.037806  -0.000422
    22  H   -0.041639   0.406218  -0.026703   0.566018  -0.026549  -0.002632
    23  H   -0.044274   0.398811  -0.037806  -0.026549   0.593607  -0.001270
    24  C    0.697734  -0.044415  -0.000422  -0.002632  -0.001270   4.962746
    25  H   -0.038449  -0.006963   0.000182   0.002335   0.000187   0.403391
    26  C   -0.050100   0.003126  -0.000068   0.000148  -0.000131   0.338699
    27  H    0.001583  -0.000094  -0.000002  -0.000010   0.000009  -0.041395
    28  H    0.000438   0.000051  -0.000005   0.000007   0.000007  -0.044060
              25         26         27         28
     1  C    0.000175   0.332330  -0.046841  -0.042369
     2  H    0.001011  -0.046074  -0.001931   0.004477
     3  H    0.000111  -0.041801   0.004515  -0.003118
     4  C   -0.000152  -0.055544  -0.002075  -0.001813
     5  C    0.000010  -0.000661  -0.000289   0.000243
     6  H   -0.000001   0.000086   0.000058   0.000006
     7  H   -0.000000  -0.000109  -0.000050  -0.000005
     8  H    0.000015   0.000609   0.000197  -0.000015
     9  C   -0.000002  -0.004911   0.000760   0.001406
    10  H   -0.000000  -0.000113   0.000001  -0.000046
    11  C    0.000000   0.000577  -0.000033  -0.000082
    12  H   -0.000002  -0.000737  -0.000010  -0.000475
    13  H    0.000000   0.000163  -0.000000  -0.000140
    14  H    0.000000  -0.000037  -0.000000   0.000037
    15  C    0.003528  -0.008144   0.000195  -0.002693
    16  H    0.000061  -0.002069   0.000058  -0.001675
    17  H   -0.000121   0.000117   0.000021   0.000113
    18  H   -0.000121   0.000367  -0.000014  -0.000076
    19  C   -0.038449  -0.050100   0.001583   0.000438
    20  C   -0.006963   0.003126  -0.000094   0.000051
    21  H    0.000182  -0.000068  -0.000002  -0.000005
    22  H    0.002335   0.000148  -0.000010   0.000007
    23  H    0.000187  -0.000131   0.000009   0.000007
    24  C    0.403391   0.338699  -0.041395  -0.044060
    25  H    0.557389  -0.039114  -0.003424   0.003152
    26  C   -0.039114   4.979543   0.413482   0.415850
    27  H   -0.003424   0.413482   0.585267  -0.028362
    28  H    0.003152   0.415850  -0.028362   0.575347
 Mulliken charges:
               1
     1  C   -0.236021
     2  H    0.115272
     3  H    0.125346
     4  C    0.018322
     5  C   -0.341505
     6  H    0.117845
     7  H    0.117792
     8  H    0.114461
     9  C   -0.154256
    10  H    0.115801
    11  C   -0.355567
    12  H    0.116140
    13  H    0.119588
    14  H    0.120829
    15  C   -0.350727
    16  H    0.120474
    17  H    0.121058
    18  H    0.119352
    19  C    0.027221
    20  C   -0.342631
    21  H    0.115672
    22  H    0.119222
    23  H    0.116356
    24  C   -0.163542
    25  H    0.116803
    26  C   -0.235486
    27  H    0.118380
    28  H    0.123802
 Sum of Mulliken charges =  -0.00000
 Mulliken charges with hydrogens summed into heavy atoms:
               1
     1  C    0.004596
     4  C    0.018322
     5  C    0.008593
     9  C   -0.038454
    11  C    0.000991
    15  C    0.010156
    19  C    0.027221
    20  C    0.008618
    24  C   -0.046739
    26  C    0.006696
 Electronic spatial extent (au):  <R**2>=           2384.0080
 Charge=             -0.0000 electrons
 Dipole moment (field-independent basis, Debye):
    X=             -0.3027    Y=              0.1253    Z=              0.0460  Tot=              0.3308
 Quadrupole moment (field-independent basis, Debye-Ang):
   XX=            -64.3024   YY=            -63.2901   ZZ=            -67.3956
   XY=             -0.7521   XZ=             -1.2367   YZ=             -0.3487
 Traceless Quadrupole moment (field-independent basis, Debye-Ang):
   XX=              0.6937   YY=              1.7059   ZZ=             -2.3996
   XY=             -0.7521   XZ=             -1.2367   YZ=             -0.3487
 Octapole moment (field-independent basis, Debye-Ang**2):
  XXX=             -2.6682  YYY=             -2.9989  ZZZ=              0.8999  XYY=              0.6416
  XXY=              4.0909  XXZ=             -2.0918  XZZ=             -1.2120  YZZ=              1.4955
  YYZ=              0.6111  XYZ=              0.3641
 Hexadecapole moment (field-independent basis, Debye-Ang**3):
 XXXX=          -2435.7193 YYYY=           -693.4921 ZZZZ=           -166.6418 XXXY=             -2.3046
 XXXZ=            -14.7514 YYYX=             11.0526 YYYZ=             -1.4215 ZZZX=             -2.8118
 ZZZY=             -0.6411 XXYY=           -520.1251 XXZZ=           -449.2344 YYZZ=           -138.3649
 XXYZ=             -4.2785 YYXZ=             -0.5786 ZZXY=             -5.9188
 N-N= 5.190879033970D+02 E-N=-1.942888546302D+03  KE= 3.887471642818D+02
 No NMR shielding tensors so no spin-rotation constants.
 Leave Link  601 at Fri Sep 17 16:10:58 2021, MaxMem=   524288000 cpu:               0.3 elap:               0.3
 (Enter /opt/gaussian/g16_legacy/l9999.exe)
 1\1\GINC-TRUENO90\FOpt\RMP2-FC\6-31G(d,p)\C10H18\JRAMOS\17-Sep-2021\0\
 \#p opt mp2/6-31g(d,p)\\Conformer number 2798. Energy MM = 23.242 kcal
 /mol\\0,1\C,0.4571299468,1.0495540399,-0.2421340626\H,-0.0426239447,1.
 9936783436,-0.4774275078\H,0.4305688299,0.4546700333,-1.1564223092\C,1
 .8729785648,1.3286960398,0.1955207753\C,2.0817017603,2.6272060634,0.92
 61079442\H,1.8561290383,3.4774733737,0.2788155241\H,3.1074964173,2.728
 0457783,1.2783802843\H,1.4178761035,2.7012769371,1.7903567631\C,2.8910
 032091,0.4684350534,0.0070307449\H,3.8688128615,0.7539538604,0.3850656
 348\C,2.8297603777,-0.8641383833,-0.6759330235\H,1.8280815821,-1.10518
 12048,-1.0245346062\H,3.1456056092,-1.6592176396,0.0021501198\H,3.5022
 078698,-0.894258729,-1.5353913156\C,-1.5945198493,-2.2160949213,-0.441
 7623219\H,-0.5386243924,-2.1605933459,-0.1892785623\H,-2.0300346592,-3
 .0618633659,0.0950612435\H,-1.6743819402,-2.4437482677,-1.5069531149\C
 ,-2.3409852414,-0.9496743513,-0.1257998893\C,-3.7975015327,-0.96823845
 63,-0.4995177057\H,-3.922548403,-1.1426950029,-1.5705622501\H,-4.28741
 0578,-0.0291711841,-0.2467326213\H,-4.3205461481,-1.7769115787,0.01600
 77962\C,-1.7881227595,0.1351498599,0.4488871807\H,-2.428633247,0.99938
 91571,0.6059530843\C,-0.3519280563,0.3136010166,0.8430758528\H,-0.3002
 664999,0.8848101187,1.7738245158\H,0.1289750816,-0.6440532442,1.046211
 8265\\Version=EM64L-G16RevA.03\State=1-A\HF=-389.1567535\MP2=-390.5738
 646\RMSD=5.132e-09\RMSF=3.194e-06\Dipole=-0.0600746,-0.0894432,-0.0436
 625\PG=C01 [X(C10H18)]\\@


 NEVER LISTEN TO CRITICISM
 OR YOU'LL BE DOIN' EVERYBODY ELSE'S THING BUT BUT YOUR OWN.

                                               -- ANDY CAPP
 Job cpu time:       0 days  1 hours 17 minutes 55.4 seconds.
 Elapsed time:       0 days  1 hours 18 minutes  9.2 seconds.
 File lengths (MBytes):  RWF=     32 Int=      0 D2E=      0 Chk=      7 Scr=      1
 Normal termination of Gaussian 16 at Fri Sep 17 16:10:58 2021.
