 Entering Gaussian System, Link 0=/dragofs/sw/campus/0.2/software/gaussian/16.gaussian/gaussian/g16_legacy/g16
 Input=C12H26O3_pair_001_018_allign_FREQ_g16.com
 Output=C12H26O3_pair_001_018_allign_FREQ_g16.log
 Initial command:
 /dragofs/sw/campus/0.2/software/gaussian/16.gaussian/gaussian/g16_legacy/l1.exe "/tmp/jramos/37671/Gau-1902195.inp" -scrdir="/tmp/jramos/37671/"
 Entering Link 1 = /dragofs/sw/campus/0.2/software/gaussian/16.gaussian/gaussian/g16_legacy/l1.exe PID=   1902199.
  
 Copyright (c) 1988,1990,1992,1993,1995,1998,2003,2009,2016,
            Gaussian, Inc.  All Rights Reserved.
  
 This is part of the Gaussian(R) 16 program.  It is based on
 the Gaussian(R) 09 system (copyright 2009, Gaussian, Inc.),
 the Gaussian(R) 03 system (copyright 2003, Gaussian, Inc.),
 the Gaussian(R) 98 system (copyright 1998, Gaussian, Inc.),
 the Gaussian(R) 94 system (copyright 1995, Gaussian, Inc.),
 the Gaussian 92(TM) system (copyright 1992, Gaussian, Inc.),
 the Gaussian 90(TM) system (copyright 1990, Gaussian, Inc.),
 the Gaussian 88(TM) system (copyright 1988, Gaussian, Inc.),
 the Gaussian 86(TM) system (copyright 1986, Carnegie Mellon
 University), and the Gaussian 82(TM) system (copyright 1983,
 Carnegie Mellon University). Gaussian is a federally registered
 trademark of Gaussian, Inc.
  
 This software contains proprietary and confidential information,
 including trade secrets, belonging to Gaussian, Inc.
  
 This software is provided under written license and may be
 used, copied, transmitted, or stored only in accord with that
 written license.
  
 The following legend is applicable only to US Government
 contracts under FAR:
  
                    RESTRICTED RIGHTS LEGEND
  
 Use, reproduction and disclosure by the US Government is
 subject to restrictions as set forth in subparagraphs (a)
 and (c) of the Commercial Computer Software - Restricted
 Rights clause in FAR 52.227-19.
  
 Gaussian, Inc.
 340 Quinnipiac St., Bldg. 40, Wallingford CT 06492
  
  
 ---------------------------------------------------------------
 Warning -- This program may not be used in any manner that
 competes with the business of Gaussian, Inc. or will provide
 assistance to any competitor of Gaussian, Inc.  The licensee
 of this program is prohibited from giving any competitor of
 Gaussian, Inc. access to this program.  By using this program,
 the user acknowledges that Gaussian, Inc. is engaged in the
 business of creating and licensing software in the field of
 computational chemistry and represents and warrants to the
 licensee that it is not a competitor of Gaussian, Inc. and that
 it will not use this program in any manner prohibited above.
 ---------------------------------------------------------------
  

 Cite this work as:
 Gaussian 16, Revision A.03,
 M. J. Frisch, G. W. Trucks, H. B. Schlegel, G. E. Scuseria, 
 M. A. Robb, J. R. Cheeseman, G. Scalmani, V. Barone, 
 G. A. Petersson, H. Nakatsuji, X. Li, M. Caricato, A. V. Marenich, 
 J. Bloino, B. G. Janesko, R. Gomperts, B. Mennucci, H. P. Hratchian, 
 J. V. Ortiz, A. F. Izmaylov, J. L. Sonnenberg, D. Williams-Young, 
 F. Ding, F. Lipparini, F. Egidi, J. Goings, B. Peng, A. Petrone, 
 T. Henderson, D. Ranasinghe, V. G. Zakrzewski, J. Gao, N. Rega, 
 G. Zheng, W. Liang, M. Hada, M. Ehara, K. Toyota, R. Fukuda, 
 J. Hasegawa, M. Ishida, T. Nakajima, Y. Honda, O. Kitao, H. Nakai, 
 T. Vreven, K. Throssell, J. A. Montgomery, Jr., J. E. Peralta, 
 F. Ogliaro, M. J. Bearpark, J. J. Heyd, E. N. Brothers, K. N. Kudin, 
 V. N. Staroverov, T. A. Keith, R. Kobayashi, J. Normand, 
 K. Raghavachari, A. P. Rendell, J. C. Burant, S. S. Iyengar, 
 J. Tomasi, M. Cossi, J. M. Millam, M. Klene, C. Adamo, R. Cammi, 
 J. W. Ochterski, R. L. Martin, K. Morokuma, O. Farkas, 
 J. B. Foresman, and D. J. Fox, Gaussian, Inc., Wallingford CT, 2016.
 
 ******************************************
 Gaussian 16:  EM64L-G16RevA.03 25-Dec-2016
                21-Jan-2023 
 ******************************************
 %chk=C12H26O3_pair_001_018_allign_FREQ_gaussian.chk
 %nproc=8
 Will use up to    8 processors via shared memory.
 %mem=1000Mb
 -------------------------------------------------------
 #p BLYP/6-31G* EmpiricalDispersion=GD3 freq scale=0.992
 -------------------------------------------------------
 1/10=4,30=1,38=1,114=992000/1,3;
 2/12=2,17=6,18=5,40=1/2;
 3/5=1,6=6,7=1,11=2,25=1,30=1,71=2,74=402,124=31,140=1/1,2,3;
 4//1;
 5/5=2,38=5,98=1/2;
 8/6=4,10=90,11=11/1;
 11/6=1,8=1,9=11,15=111,16=1/1,2,10;
 10/6=1/2;
 6/7=2,8=2,9=2,10=2,28=1/1;
 7/8=1,10=1,25=1/1,2,3,16;
 1/10=4,30=1/3;
 99//99;
 Leave Link    1 at Sat Jan 21 11:03:04 2023, MaxMem=   131072000 cpu:               0.2 elap:               0.0
 (Enter /dragofs/sw/campus/0.2/software/gaussian/16.gaussian/gaussian/g16_legacy/l101.exe)
 --------------------------------------------
 Conformer name C12H26O3_pair_001_018_allign.
 --------------------------------------------
 Symbolic Z-matrix:
 Charge =  0 Multiplicity = 1
 H                    -4.4828   -2.4128   -0.2991 
 C                    -4.0185   -1.596     0.2763 
 C                    -3.3376   -0.5684   -0.6494 
 H                    -4.8059   -1.12      0.8851 
 H                    -3.2818   -2.0295    0.9689 
 H                    -4.0829   -0.1057   -1.3218 
 H                    -2.6      -1.0769   -1.297 
 C                    -2.6046    0.5493    0.1303 
 C                    -1.9477    1.5903   -0.8102 
 H                    -3.3329    1.0679    0.7832 
 H                    -2.6985    1.9493   -1.5375 
 H                    -1.1679    1.0689   -1.3952 
 O                    -1.6265   -0.0094    1.042 
 H                    -1.0496   -0.5909    0.4941 
 C                    -1.3398    2.7865   -0.05 
 H                    -2.1275    3.3788    0.4453 
 H                    -0.7864    3.4606   -0.7235 
 H                    -0.6519    2.4361    0.7341 
 H                     1.0223    2.0339   -1.7467 
 C                     2.1054    1.9072   -1.5941 
 C                     2.4343    1.7007   -0.1018 
 H                     2.4327    1.0407   -2.1894 
 H                     2.6105    2.8014   -1.9913 
 H                     2.1134    2.5832    0.4785 
 H                     3.5251    1.6037    0.0404 
 C                     1.7384    0.4757    0.5125 
 C                     2.0659    0.2399    1.9957 
 H                     0.652     0.5475    0.38 
 H                     1.8394    1.1773    2.5338 
 H                     3.1532    0.0718    2.0941 
 O                     2.2201   -0.7103   -0.2526 
 C                     1.3205   -1.5508   -0.8216 
 O                     0.0942   -1.4705   -0.7224 
 C                     2.0341   -2.6221   -1.6325 
 H                     1.3106   -3.3785   -1.9582 
 H                     2.5077   -2.1604   -2.5134 
 H                     2.8326   -3.0853   -1.0346 
 C                     1.2733   -0.9246    2.6248 
 H                     0.1914   -0.7298    2.5798 
 H                     1.5571   -1.0668    3.6793 
 H                     1.4745   -1.8693    2.0951 
 
 ITRead=  0  0  0  0  0  0  0  0  0  0  0  0  0  0  0  0  0  0  0  0
 ITRead=  0  0  0  0  0  0  0  0  0  0  0  0  0  0  0  0  0  0  0  0
 ITRead=  0
 MicOpt= -1 -1 -1 -1 -1 -1 -1 -1 -1 -1 -1 -1 -1 -1 -1 -1 -1 -1 -1 -1
 MicOpt= -1 -1 -1 -1 -1 -1 -1 -1 -1 -1 -1 -1 -1 -1 -1 -1 -1 -1 -1 -1
 MicOpt= -1
 NAtoms=     41 NQM=       41 NQMF=       0 NMMI=      0 NMMIF=      0
                NMic=       0 NMicF=      0.
                    Isotopes and Nuclear Properties:
 (Nuclear quadrupole moments (NQMom) in fm**2, nuclear magnetic moments (NMagM)
  in nuclear magnetons)

  Atom         1           2           3           4           5           6           7           8           9          10
 IAtWgt=           1          12          12           1           1           1           1          12          12           1
 AtmWgt=   1.0078250  12.0000000  12.0000000   1.0078250   1.0078250   1.0078250   1.0078250  12.0000000  12.0000000   1.0078250
 NucSpn=           1           0           0           1           1           1           1           0           0           1
 AtZEff=  -0.0000000  -0.0000000  -0.0000000  -0.0000000  -0.0000000  -0.0000000  -0.0000000  -0.0000000  -0.0000000  -0.0000000
 NQMom=    0.0000000   0.0000000   0.0000000   0.0000000   0.0000000   0.0000000   0.0000000   0.0000000   0.0000000   0.0000000
 NMagM=    2.7928460   0.0000000   0.0000000   2.7928460   2.7928460   2.7928460   2.7928460   0.0000000   0.0000000   2.7928460
 AtZNuc=   1.0000000   6.0000000   6.0000000   1.0000000   1.0000000   1.0000000   1.0000000   6.0000000   6.0000000   1.0000000

  Atom        11          12          13          14          15          16          17          18          19          20
 IAtWgt=           1           1          16           1          12           1           1           1           1          12
 AtmWgt=   1.0078250   1.0078250  15.9949146   1.0078250  12.0000000   1.0078250   1.0078250   1.0078250   1.0078250  12.0000000
 NucSpn=           1           1           0           1           0           1           1           1           1           0
 AtZEff=  -0.0000000  -0.0000000  -0.0000000  -0.0000000  -0.0000000  -0.0000000  -0.0000000  -0.0000000  -0.0000000  -0.0000000
 NQMom=    0.0000000   0.0000000   0.0000000   0.0000000   0.0000000   0.0000000   0.0000000   0.0000000   0.0000000   0.0000000
 NMagM=    2.7928460   2.7928460   0.0000000   2.7928460   0.0000000   2.7928460   2.7928460   2.7928460   2.7928460   0.0000000
 AtZNuc=   1.0000000   1.0000000   8.0000000   1.0000000   6.0000000   1.0000000   1.0000000   1.0000000   1.0000000   6.0000000

  Atom        21          22          23          24          25          26          27          28          29          30
 IAtWgt=          12           1           1           1           1          12          12           1           1           1
 AtmWgt=  12.0000000   1.0078250   1.0078250   1.0078250   1.0078250  12.0000000  12.0000000   1.0078250   1.0078250   1.0078250
 NucSpn=           0           1           1           1           1           0           0           1           1           1
 AtZEff=  -0.0000000  -0.0000000  -0.0000000  -0.0000000  -0.0000000  -0.0000000  -0.0000000  -0.0000000  -0.0000000  -0.0000000
 NQMom=    0.0000000   0.0000000   0.0000000   0.0000000   0.0000000   0.0000000   0.0000000   0.0000000   0.0000000   0.0000000
 NMagM=    0.0000000   2.7928460   2.7928460   2.7928460   2.7928460   0.0000000   0.0000000   2.7928460   2.7928460   2.7928460
 AtZNuc=   6.0000000   1.0000000   1.0000000   1.0000000   1.0000000   6.0000000   6.0000000   1.0000000   1.0000000   1.0000000

  Atom        31          32          33          34          35          36          37          38          39          40
 IAtWgt=          16          12          16          12           1           1           1          12           1           1
 AtmWgt=  15.9949146  12.0000000  15.9949146  12.0000000   1.0078250   1.0078250   1.0078250  12.0000000   1.0078250   1.0078250
 NucSpn=           0           0           0           0           1           1           1           0           1           1
 AtZEff=  -0.0000000  -0.0000000  -0.0000000  -0.0000000  -0.0000000  -0.0000000  -0.0000000  -0.0000000  -0.0000000  -0.0000000
 NQMom=    0.0000000   0.0000000   0.0000000   0.0000000   0.0000000   0.0000000   0.0000000   0.0000000   0.0000000   0.0000000
 NMagM=    0.0000000   0.0000000   0.0000000   0.0000000   2.7928460   2.7928460   2.7928460   0.0000000   2.7928460   2.7928460
 AtZNuc=   8.0000000   6.0000000   8.0000000   6.0000000   1.0000000   1.0000000   1.0000000   6.0000000   1.0000000   1.0000000

  Atom        41
 IAtWgt=           1
 AtmWgt=   1.0078250
 NucSpn=           1
 AtZEff=  -0.0000000
 NQMom=    0.0000000
 NMagM=    2.7928460
 AtZNuc=   1.0000000
 Leave Link  101 at Sat Jan 21 11:03:04 2023, MaxMem=   131072000 cpu:               0.7 elap:               0.1
 (Enter /dragofs/sw/campus/0.2/software/gaussian/16.gaussian/gaussian/g16_legacy/l103.exe)

 GradGradGradGradGradGradGradGradGradGradGradGradGradGradGradGradGradGrad
 Berny optimization.
 Initialization pass.
 Trust Radius=3.00D-01 FncErr=1.00D-07 GrdErr=1.00D-07 EigMax=2.50D+02 EigMin=1.00D-04
 Number of steps in this run=      2 maximum allowed number of steps=      2.
 GradGradGradGradGradGradGradGradGradGradGradGradGradGradGradGradGradGrad

 Leave Link  103 at Sat Jan 21 11:03:04 2023, MaxMem=   131072000 cpu:               0.1 elap:               0.0
 (Enter /dragofs/sw/campus/0.2/software/gaussian/16.gaussian/gaussian/g16_legacy/l202.exe)
                          Input orientation:                          
 ---------------------------------------------------------------------
 Center     Atomic      Atomic             Coordinates (Angstroms)
 Number     Number       Type             X           Y           Z
 ---------------------------------------------------------------------
      1          1           0       -4.482800   -2.412800   -0.299100
      2          6           0       -4.018500   -1.596000    0.276300
      3          6           0       -3.337600   -0.568400   -0.649400
      4          1           0       -4.805900   -1.120000    0.885100
      5          1           0       -3.281800   -2.029500    0.968900
      6          1           0       -4.082900   -0.105700   -1.321800
      7          1           0       -2.600000   -1.076900   -1.297000
      8          6           0       -2.604600    0.549300    0.130300
      9          6           0       -1.947700    1.590300   -0.810200
     10          1           0       -3.332900    1.067900    0.783200
     11          1           0       -2.698500    1.949300   -1.537500
     12          1           0       -1.167900    1.068900   -1.395200
     13          8           0       -1.626500   -0.009400    1.042000
     14          1           0       -1.049600   -0.590900    0.494100
     15          6           0       -1.339800    2.786500   -0.050000
     16          1           0       -2.127500    3.378800    0.445300
     17          1           0       -0.786400    3.460600   -0.723500
     18          1           0       -0.651900    2.436100    0.734100
     19          1           0        1.022300    2.033900   -1.746700
     20          6           0        2.105400    1.907200   -1.594100
     21          6           0        2.434300    1.700700   -0.101800
     22          1           0        2.432700    1.040700   -2.189400
     23          1           0        2.610500    2.801400   -1.991300
     24          1           0        2.113400    2.583200    0.478500
     25          1           0        3.525100    1.603700    0.040400
     26          6           0        1.738400    0.475700    0.512500
     27          6           0        2.065900    0.239900    1.995700
     28          1           0        0.652000    0.547500    0.380000
     29          1           0        1.839400    1.177300    2.533800
     30          1           0        3.153200    0.071800    2.094100
     31          8           0        2.220100   -0.710300   -0.252600
     32          6           0        1.320500   -1.550800   -0.821600
     33          8           0        0.094200   -1.470500   -0.722400
     34          6           0        2.034100   -2.622100   -1.632500
     35          1           0        1.310600   -3.378500   -1.958200
     36          1           0        2.507700   -2.160400   -2.513400
     37          1           0        2.832600   -3.085300   -1.034600
     38          6           0        1.273300   -0.924600    2.624800
     39          1           0        0.191400   -0.729800    2.579800
     40          1           0        1.557100   -1.066800    3.679300
     41          1           0        1.474500   -1.869300    2.095100
 ---------------------------------------------------------------------
                    Distance matrix (angstroms):
                    1          2          3          4          5
     1  H    0.000000
     2  C    1.101736   0.000000
     3  C    2.199092   1.541592   0.000000
     4  H    1.782710   1.103273   2.194278   0.000000
     5  H    1.788056   1.100156   2.181014   1.776821   0.000000
     6  H    2.555102   2.186107   1.105299   2.534155   3.096784
     7  H    2.515029   2.181027   1.105446   3.103130   2.550804
     8  C    3.533561   2.573469   1.547409   2.863915   2.795006
     9  C    4.765791   3.952367   2.572482   4.288249   4.248290
    10  H    3.822161   2.797027   2.174820   2.639511   3.103382
    11  H    4.872913   4.195405   2.745175   4.441928   4.738473
    12  H    4.930744   4.245177   2.818611   4.819346   4.433692
    13  O    3.966526   2.970734   2.470056   3.371444   2.612693
    14  H    3.966781   3.141979   2.557937   3.813478   2.697725
    15  C    6.080561   5.146670   3.950423   5.305563   5.291822
    16  H    6.296364   5.324761   4.271194   5.254184   5.554842
    17  H    6.952720   6.084018   4.769377   6.302846   6.263580
    18  H    6.265391   5.272704   4.260760   5.470317   5.187783
    19  H    7.223213   6.532868   5.194686   7.130314   6.512371
    20  C    7.983972   7.298833   6.053702   7.942068   7.147622
    21  C    8.050222   7.256019   6.226035   7.832676   6.909022
    22  H    7.957640   7.392553   6.185238   8.155888   7.215019
    23  H    8.964727   8.271806   6.966788   8.868712   8.174324
    24  H    8.311109   7.423395   6.396729   7.858481   7.115172
    25  H    8.965154   8.197538   7.231217   8.805545   7.771495
    26  C    6.906914   6.122878   5.310926   6.746329   5.629097
    27  C    7.428889   6.583828   6.070232   7.092559   5.899355
    28  H    5.965796   5.139933   4.268701   5.729254   4.739464
    29  H    7.802843   6.863125   6.323097   7.221898   6.241728
    30  H    8.379089   7.584144   7.075813   8.138141   6.862271
    31  O    6.915890   6.323316   5.573654   7.129298   5.788200
    32  C    5.890190   5.450903   4.763681   6.374260   4.961472
    33  O    4.692125   4.234082   3.549136   5.168935   3.817113
    34  C    6.655205   6.428870   5.834323   7.441788   5.947878
    35  H    6.103169   6.047281   5.587073   7.113139   5.610513
    36  H    7.337160   7.119850   6.338493   8.131481   6.757356
    37  H    7.382973   7.132604   6.674918   8.117533   6.520323
    38  C    6.625452   5.828325   5.666362   6.326248   4.971091
    39  H    5.741838   4.876441   4.786191   5.291245   4.043184
    40  H    7.356614   6.553455   6.553177   6.949687   5.629211
    41  H    6.443369   5.792735   5.690424   6.439641   4.890438
                    6          7          8          9         10
     6  H    0.000000
     7  H    1.772805   0.000000
     8  C    2.173244   2.163731   0.000000
     9  C    2.774388   2.788624   1.549109   0.000000
    10  H    2.524057   3.076449   1.107089   2.174995   0.000000
    11  H    2.487190   3.037339   2.179535   1.105236   2.562221
    12  H    3.143612   2.581668   2.158991   1.105518   3.071262
    13  O    3.410385   2.749214   1.449145   2.468371   2.034540
    14  H    3.568448   2.418259   1.962252   2.695443   2.837015
    15  C    4.184124   4.250761   2.576294   1.542187   2.760481
    16  H    4.368978   4.807507   2.886680   2.192565   2.628198
    17  H    4.893196   4.920056   3.537018   2.203215   3.805236
    18  H    4.739117   4.501292   2.781659   2.186170   3.010339
    19  H    5.551711   4.795869   4.345293   3.145586   5.128481
    20  C    6.513138   5.579777   5.196301   4.140356   5.994254
    21  C    6.872072   5.872626   5.173984   4.440264   5.868923
    22  H    6.672331   5.532511   5.567484   4.625166   6.486851
    23  H    7.328101   6.532425   6.063861   4.861990   6.784311
    24  H    6.990379   6.226144   5.149516   4.374829   5.661374
    25  H    7.915763   6.818439   6.220375   5.538523   6.918887
    26  C    6.131086   4.950411   4.360406   4.071757   5.112931
    27  C    6.995212   5.860585   5.038751   5.079925   5.594889
    28  H    5.073665   4.003312   3.266159   3.043427   4.038913
    29  H    7.182296   6.282095   5.091201   5.069027   5.461617
    30  H    8.003813   6.776310   6.102194   6.063001   6.691799
    31  O    6.421568   4.945557   5.001093   4.793145   5.922051
    32  C    5.615625   3.977550   4.552246   4.532965   5.575581
    33  O    4.435101   2.782768   3.477098   3.680429   4.522756
    34  C    6.621668   4.896436   5.889209   5.854504   6.946682
    35  H    6.340825   4.585558   5.926064   6.051727   6.989123
    36  H    7.005549   5.361175   6.361386   6.067885   7.443259
    37  H    7.535558   5.797902   6.643076   6.690505   7.652899
    38  C    6.703367   5.514178   4.840766   5.338426   5.345898
    39  H    5.820792   4.789778   3.931127   4.631491   4.345134
    40  H    7.598968   6.484223   5.703238   6.284856   6.070950
    41  H    6.757972   5.360577   5.133140   5.667544   5.784403
                   11         12         13         14         15
    11  H    0.000000
    12  H    1.771465   0.000000
    13  O    3.411673   2.704254   0.000000
    14  H    3.646764   2.517615   0.985470   0.000000
    15  C    2.181657   2.188438   3.015248   3.433233   0.000000
    16  H    2.510181   3.105465   3.476629   4.113729   1.103002
    17  H    2.569582   2.513355   3.982921   4.238688   1.101937
    18  H    3.096080   2.582520   2.650494   3.062433   1.100363
    19  H    3.727637   2.419040   4.355234   4.025361   3.004116
    20  C    4.804418   3.384790   4.954741   4.533774   3.876444
    21  C    5.335604   3.879162   4.552232   4.212373   3.927528
    22  H    5.251642   3.687258   5.293558   4.689318   4.675105
    23  H    5.396062   4.199190   5.920614   5.575056   4.401561
    24  H    5.255518   4.070723   4.585407   4.481040   3.499319
    25  H    6.429806   4.936720   5.490380   5.094114   5.007438
    26  C    5.104907   3.526724   3.440675   2.985116   3.889925
    27  C    6.172929   4.758456   3.821716   3.556877   4.718989
    28  H    4.107031   2.595232   2.437200   2.050467   3.027423
    29  H    6.145242   4.949004   3.955526   3.953888   4.401461
    30  H    7.138341   5.642812   4.894797   4.545624   5.670433
    31  O    5.737340   3.993699   4.118687   3.356003   4.994151
    32  C    5.377320   3.658412   3.812313   2.875734   5.146332
    33  O    4.489832   2.914465   2.865088   1.887286   4.542084
    34  C    6.580595   4.892095   5.232508   4.261151   6.568140
    35  H    6.680967   5.122431   5.383177   4.399436   6.976609
    36  H    6.704218   5.018843   5.861679   4.915564   6.733752
    37  H    7.496211   5.778530   5.801465   4.861114   7.270240
    38  C    6.431115   5.108219   3.428073   3.169716   5.268312
    39  H    5.699233   4.569862   2.487683   2.430950   4.650246
    40  H    7.377126   6.143077   4.267172   4.143292   6.094885
    41  H    6.722456   5.272333   3.766225   3.250937   5.847924
                   16         17         18         19         20
    16  H    0.000000
    17  H    1.780824   0.000000
    18  H    1.774679   1.786698   0.000000
    19  H    4.066308   2.520676   3.019781   0.000000
    20  C    4.923637   3.396101   3.647321   1.101111   0.000000
    21  C    4.891355   3.722454   3.280880   2.193277   1.542004
    22  H    5.762272   4.285719   4.473114   1.780915   1.101058
    23  H    5.359016   3.685212   4.266674   1.780804   1.101130
    24  H    4.315010   3.259367   2.780981   2.538453   2.180071
    25  H    5.938587   4.756117   4.315256   3.105287   2.186150
    26  C    4.835048   4.100236   3.099324   2.836331   2.573256
    27  C    5.462695   5.089457   3.715019   4.279380   3.958297
    28  H    3.968141   3.431160   2.322144   2.620946   2.803253
    29  H    4.994470   4.766371   3.321155   4.441182   4.200365
    30  H    6.445198   5.911284   4.681698   4.810646   4.250811
    31  O    6.009112   5.163061   4.372847   3.346295   2.943482
    32  C    6.147739   5.437167   4.712317   3.714136   3.629131
    33  O    5.460328   5.009112   4.235514   3.767145   4.026617
    34  C    7.592560   6.766147   6.196836   4.766038   4.530024
    35  H    7.953518   7.259145   6.701452   5.424198   5.357509
    36  H    7.805237   6.756514   6.454234   4.515130   4.189550
    37  H    8.281140   7.486171   6.764311   5.476357   5.076112
    38  C    5.902111   5.889266   4.309924   5.284481   5.148844
    39  H    5.178222   5.424697   3.760410   5.200676   5.295149
    40  H    6.618035   6.736022   5.081751   6.272306   6.078985
    41  H    6.575621   6.439255   4.991029   5.495351   5.316971
                   21         22         23         24         25
    21  C    0.000000
    22  H    2.189447   0.000000
    23  H    2.193809   1.780708   0.000000
    24  H    1.103871   3.098217   2.528761   0.000000
    25  H    1.104298   2.546039   2.529582   1.773203   0.000000
    26  C    1.536967   2.846321   3.526819   2.140873   2.165077
    27  C    2.582472   4.276784   4.770120   2.791990   2.795069
    28  H    2.176831   3.164799   3.812985   2.507881   3.079869
    29  H    2.752134   4.762277   4.869171   2.505172   3.039810
    30  H    2.827032   4.450422   4.943251   3.162037   2.588959
    31  O    2.425189   2.619617   3.937960   3.375357   2.672727
    32  C    3.511540   3.134284   4.687637   4.405554   3.943878
    33  O    3.989702   3.731862   5.117715   4.685276   4.669437
    34  C    4.603238   3.726275   5.465833   5.617629   4.783206
    35  H    5.523332   4.565292   6.315220   6.490290   5.806955
    36  H    4.552944   3.218329   4.990252   5.622160   4.661056
    37  H    4.892295   4.303180   5.968068   5.910889   4.860237
    38  C    3.959099   5.327582   6.081082   4.197265   4.259346
    39  H    4.257806   5.559079   6.262298   4.368697   4.796596
    40  H    4.767101   6.296814   6.944662   4.886419   4.924042
    41  H    4.300289   5.267180   6.309089   4.779785   4.526420
                   26         27         28         29         30
    26  C    0.000000
    27  C    1.537121   0.000000
    28  H    1.096803   2.168921   0.000000
    29  H    2.141984   1.104343   2.538783   0.000000
    30  H    2.160151   1.104609   3.069272   1.772438   0.000000
    31  O    1.491311   2.445713   2.107411   3.387033   2.643739
    32  C    2.461943   3.420440   2.508704   4.355513   3.806958
    33  O    2.831266   3.768440   2.366168   4.545262   4.434957
    34  C    3.779528   4.621243   4.000840   5.641933   4.732550
    35  H    4.598068   5.412635   4.616753   6.419736   5.632129
    36  H    4.086186   5.127242   4.375855   6.087782   5.160276
    37  H    4.033796   4.563716   4.466917   5.647095   4.456325
    38  C    2.576620   1.542738   2.755398   2.178700   2.192825
    39  H    2.849591   2.189804   2.585105   2.520923   3.106562
    40  H    3.527152   2.191085   3.782929   2.535320   2.521270
    41  H    2.841354   2.192797   3.075548   3.099578   2.566302
                   31         32         33         34         35
    31  O    0.000000
    32  C    1.356275   0.000000
    33  O    2.306093   1.232924   0.000000
    34  C    2.365100   1.521337   2.432628   0.000000
    35  H    3.294777   2.152312   2.578235   1.096209   0.000000
    36  H    2.701244   2.154819   3.083606   1.101566   1.795846
    37  H    2.574355   2.164834   3.194352   1.099837   1.804297
    38  C    3.036739   3.503145   3.590548   4.645958   5.198741
    39  H    3.484034   3.676742   3.385648   4.971902   5.372305
    40  H    4.003311   4.533027   4.655965   5.555331   6.098043
    41  H    2.722296   2.938077   3.162685   3.843808   4.328255
                   36         37         38         39         40
    36  H    0.000000
    37  H    1.774218   0.000000
    38  C    5.426974   4.526726   0.000000
    39  H    5.775167   5.058479   1.100218   0.000000
    40  H    6.359963   5.284136   1.101242   1.785387   0.000000
    41  H    4.731862   3.621894   1.101600   1.783183   1.777785
                   41
    41  H    0.000000
 Stoichiometry    C12H26O3
 Framework group  C1[X(C12H26O3)]
 Deg. of freedom   117
 Full point group                 C1      NOp   1
 Largest Abelian subgroup         C1      NOp   1
 Largest concise Abelian subgroup C1      NOp   1
                         Standard orientation:                         
 ---------------------------------------------------------------------
 Center     Atomic      Atomic             Coordinates (Angstroms)
 Number     Number       Type             X           Y           Z
 ---------------------------------------------------------------------
      1          1           0       -4.482773   -2.412833   -0.299100
      2          6           0       -4.018480   -1.596029    0.276300
      3          6           0       -3.337587   -0.568424   -0.649400
      4          1           0       -4.805883   -1.120035    0.885100
      5          1           0       -3.281776   -2.029523    0.968900
      6          1           0       -4.082891   -0.105729   -1.321800
      7          1           0       -2.599984   -1.076918   -1.297000
      8          6           0       -2.604596    0.549282    0.130300
      9          6           0       -1.947704    1.590287   -0.810200
     10          1           0       -3.332900    1.067876    0.783200
     11          1           0       -2.698507    1.949281   -1.537500
     12          1           0       -1.167900    1.068893   -1.395200
     13          8           0       -1.626492   -0.009411    1.042000
     14          1           0       -1.049587   -0.590906    0.494100
     15          6           0       -1.339813    2.786491   -0.050000
     16          1           0       -2.127518    3.378785    0.445300
     17          1           0       -0.786418    3.460596   -0.723500
     18          1           0       -0.651910    2.436097    0.734100
     19          1           0        1.022293    2.033909   -1.746700
     20          6           0        2.105394    1.907218   -1.594100
     21          6           0        2.434295    1.700720   -0.101800
     22          1           0        2.432700    1.040720   -2.189400
     23          1           0        2.610487    2.801422   -1.991300
     24          1           0        2.113389    2.583218    0.478500
     25          1           0        3.525096    1.603729    0.040400
     26          6           0        1.738405    0.475715    0.512500
     27          6           0        2.065906    0.239917    1.995700
     28          1           0        0.652004    0.547507    0.380000
     29          1           0        1.839399    1.177316    2.533800
     30          1           0        3.153208    0.071826    2.094100
     31          8           0        2.220114   -0.710281   -0.252600
     32          6           0        1.320520   -1.550788   -0.821600
     33          8           0        0.094219   -1.470498   -0.722400
     34          6           0        2.034128   -2.622083   -1.632500
     35          1           0        1.310634   -3.378488   -1.958200
     36          1           0        2.507725   -2.160379   -2.513400
     37          1           0        2.832632   -3.085277   -1.034600
     38          6           0        1.273315   -0.924589    2.624800
     39          1           0        0.191414   -0.729797    2.579800
     40          1           0        1.557116   -1.066786    3.679300
     41          1           0        1.474522   -1.869287    2.095100
 ---------------------------------------------------------------------
 Rotational constants (GHZ):           0.6109248           0.3648095           0.3197551
 Leave Link  202 at Sat Jan 21 11:03:04 2023, MaxMem=   131072000 cpu:               0.0 elap:               0.0
 (Enter /dragofs/sw/campus/0.2/software/gaussian/16.gaussian/gaussian/g16_legacy/l301.exe)
 Standard basis: 6-31G(d) (6D, 7F)
 Ernie: Thresh=  0.10000D-02 Tol=  0.10000D-05 Strict=F.
 There are   277 symmetry adapted cartesian basis functions of A   symmetry.
 There are   277 symmetry adapted basis functions of A   symmetry.
   277 basis functions,   524 primitive gaussians,   277 cartesian basis functions
    61 alpha electrons       61 beta electrons
       nuclear repulsion energy      1135.0895373913 Hartrees.
 IExCor=  402 DFT=T Ex=B Corr=LYP ExCW=0 ScaHFX=  0.000000
 ScaDFX=  1.000000  1.000000  1.000000  1.000000 ScalE2=  1.000000  1.000000
 IRadAn=      5 IRanWt=     -1 IRanGd=            0 ICorTp=0 IEmpDi=131
 NAtoms=   41 NActive=   41 NUniq=   41 SFac= 1.00D+00 NAtFMM=   60 NAOKFM=F Big=F
 Integral buffers will be    131072 words long.
 Raffenetti 2 integral format.
 Two-electron integral symmetry is turned on.
 R6Disp:  Grimme-D3 Dispersion energy=       -0.0544093449 Hartrees.
 Nuclear repulsion after empirical dispersion term =     1135.0351280464 Hartrees.
 Leave Link  301 at Sat Jan 21 11:03:04 2023, MaxMem=   131072000 cpu:               0.4 elap:               0.1
 (Enter /dragofs/sw/campus/0.2/software/gaussian/16.gaussian/gaussian/g16_legacy/l302.exe)
 NPDir=0 NMtPBC=     1 NCelOv=     1 NCel=       1 NClECP=     1 NCelD=      1
         NCelK=      1 NCelE2=     1 NClLst=     1 CellRange=     0.0.
 One-electron integrals computed using PRISM.
 One-electron integral symmetry used in STVInt
 NBasis=   277 RedAO= T EigKep=  3.19D-03  NBF=   277
 NBsUse=   277 1.00D-06 EigRej= -1.00D+00 NBFU=   277
 Precomputing XC quadrature grid using
 IXCGrd= 4 IRadAn=           5 IRanWt=          -1 IRanGd=           0 AccXCQ= 0.00D+00.
 Generated NRdTot=       0 NPtTot=           0 NUsed=           0 NTot=          32
 NSgBfM=   276   276   276   276   276 MxSgAt=    41 MxSgA2=    41.
 Leave Link  302 at Sat Jan 21 11:03:05 2023, MaxMem=   131072000 cpu:               3.4 elap:               0.4
 (Enter /dragofs/sw/campus/0.2/software/gaussian/16.gaussian/gaussian/g16_legacy/l303.exe)
 DipDrv:  MaxL=1.
 Leave Link  303 at Sat Jan 21 11:03:05 2023, MaxMem=   131072000 cpu:               0.2 elap:               0.0
 (Enter /dragofs/sw/campus/0.2/software/gaussian/16.gaussian/gaussian/g16_legacy/l401.exe)
 ExpMin= 1.61D-01 ExpMax= 5.48D+03 ExpMxC= 8.25D+02 IAcc=3 IRadAn=         5 AccDes= 0.00D+00
 Harris functional with IExCor=  402 and IRadAn=       5 diagonalized for initial guess.
 HarFok:  IExCor=  402 AccDes= 0.00D+00 IRadAn=         5 IDoV= 1 UseB2=F ITyADJ=14
 ICtDFT=  3500011 ScaDFX=  1.000000  1.000000  1.000000  1.000000
 FoFCou: FMM=F IPFlag=           0 FMFlag=      100000 FMFlg1=           0
         NFxFlg=           0 DoJE=T BraDBF=F KetDBF=T FulRan=T
         wScrn=  0.000000 ICntrl=       500 IOpCl=  0 I1Cent=   200000004 NGrid=           0
         NMat0=    1 NMatS0=      1 NMatT0=    0 NMatD0=    1 NMtDS0=    0 NMtDT0=    0
 Petite list used in FoFCou.
 Harris En= -698.803849954612    
 JPrj=0 DoOrth=F DoCkMO=F.
 Leave Link  401 at Sat Jan 21 11:03:07 2023, MaxMem=   131072000 cpu:              19.1 elap:               2.4
 (Enter /dragofs/sw/campus/0.2/software/gaussian/16.gaussian/gaussian/g16_legacy/l502.exe)
 Integral symmetry usage will be decided dynamically.
 Closed shell SCF:
 Using DIIS extrapolation, IDIIS=  1040.
 NGot=   131072000 LenX=   130912832 LenY=   130835662
 Requested convergence on RMS density matrix=1.00D-08 within 128 cycles.
 Requested convergence on MAX density matrix=1.00D-06.
 Requested convergence on             energy=1.00D-06.
 No special actions if energy rises.
 Fock matrices will be formed incrementally for  20 cycles.
 Integral accuracy reduced to 1.0D-05 until final iterations.

 Cycle   1  Pass 0  IDiag  1:
 FoFJK:  IHMeth= 1 ICntrl=     500 DoSepK=F KAlg= 0 I1Cent=           0 FoldK=F
 IRaf= 870000000 NMat=       1 IRICut=       1 DoRegI=T DoRafI=F ISym2E= 0 IDoP0=0 IntGTp=1.
 FoFCou: FMM=F IPFlag=           0 FMFlag=      100000 FMFlg1=           0
         NFxFlg=           0 DoJE=T BraDBF=F KetDBF=F FulRan=T
         wScrn=  0.000000 ICntrl=       500 IOpCl=  0 I1Cent=           0 NGrid=           0
         NMat0=    1 NMatS0=      1 NMatT0=    0 NMatD0=    1 NMtDS0=    0 NMtDT0=    0
 Symmetry not used in FoFCou.
 E= -697.798038915543    
 DIIS: error= 3.62D-02 at cycle   1 NSaved=   1.
 NSaved= 1 IEnMin= 1 EnMin= -697.798038915543     IErMin= 1 ErrMin= 3.62D-02
 ErrMax= 3.62D-02  0.00D+00 EMaxC= 1.00D-01 BMatC= 5.24D-01 BMatP= 5.24D-01
 IDIUse=3 WtCom= 6.38D-01 WtEn= 3.62D-01
 Coeff-Com:  0.100D+01
 Coeff-En:   0.100D+01
 Coeff:      0.100D+01
 Gap=     0.041 Goal=   None    Shift=    0.000
 GapD=    0.041 DampG=0.250 DampE=0.500 DampFc=0.2500 IDamp=-1.
 Damping current iteration by 2.50D-01
 RMSDP=7.37D-03 MaxDP=2.10D-01              OVMax= 2.24D-01

 Cycle   2  Pass 0  IDiag  1:
 RMSU=  1.83D-03    CP:  9.89D-01
 E= -697.994879114854     Delta-E=       -0.196840199310 Rises=F Damp=T
 DIIS: error= 1.42D-02 at cycle   2 NSaved=   2.
 NSaved= 2 IEnMin= 2 EnMin= -697.994879114854     IErMin= 2 ErrMin= 1.42D-02
 ErrMax= 1.42D-02  0.00D+00 EMaxC= 1.00D-01 BMatC= 7.67D-02 BMatP= 5.24D-01
 IDIUse=3 WtCom= 8.58D-01 WtEn= 1.42D-01
 Coeff-Com: -0.450D+00 0.145D+01
 Coeff-En:   0.000D+00 0.100D+01
 Coeff:     -0.386D+00 0.139D+01
 Gap=     0.131 Goal=   None    Shift=    0.000
 RMSDP=1.92D-03 MaxDP=5.44D-02 DE=-1.97D-01 OVMax= 2.02D-01

 Cycle   3  Pass 0  IDiag  1:
 RMSU=  1.69D-03    CP:  9.77D-01  1.48D+00
 E= -698.235803409187     Delta-E=       -0.240924294333 Rises=F Damp=F
 DIIS: error= 2.63D-02 at cycle   3 NSaved=   3.
 NSaved= 3 IEnMin= 3 EnMin= -698.235803409187     IErMin= 2 ErrMin= 1.42D-02
 ErrMax= 2.63D-02  0.00D+00 EMaxC= 1.00D-01 BMatC= 1.16D-01 BMatP= 7.67D-02
 IDIUse=2 WtCom= 0.00D+00 WtEn= 1.00D+00
 Coeff-En:   0.000D+00 0.000D+00 0.100D+01
 Coeff:      0.000D+00 0.000D+00 0.100D+01
 Gap=     0.114 Goal=   None    Shift=    0.000
 RMSDP=4.55D-03 MaxDP=2.44D-01 DE=-2.41D-01 OVMax= 5.37D-01

 Cycle   4  Pass 0  IDiag  1:
 RMSU=  2.45D-03    CP:  9.89D-01  1.86D+00 -1.22D+00
 E= -697.256671687982     Delta-E=        0.979131721204 Rises=F Damp=F
 DIIS: error= 8.23D-02 at cycle   4 NSaved=   4.
 NSaved= 4 IEnMin= 3 EnMin= -698.235803409187     IErMin= 2 ErrMin= 1.42D-02
 ErrMax= 8.23D-02  0.00D+00 EMaxC= 1.00D-01 BMatC= 1.30D+00 BMatP= 7.67D-02
 IDIUse=2 WtCom= 0.00D+00 WtEn= 1.00D+00
 Coeff-En:   0.000D+00 0.000D+00 0.854D+00 0.146D+00
 Coeff:      0.000D+00 0.000D+00 0.854D+00 0.146D+00
 Gap=     0.161 Goal=   None    Shift=    0.000
 RMSDP=2.67D-03 MaxDP=1.37D-01 DE= 9.79D-01 OVMax= 2.78D-01

 Cycle   5  Pass 0  IDiag  1:
 RMSU=  5.97D-04    CP:  9.86D-01  1.45D+00 -1.27D-01  3.21D-01
 E= -698.222924732558     Delta-E=       -0.966253044576 Rises=F Damp=F
 DIIS: error= 2.46D-02 at cycle   5 NSaved=   5.
 NSaved= 5 IEnMin= 3 EnMin= -698.235803409187     IErMin= 2 ErrMin= 1.42D-02
 ErrMax= 2.46D-02  0.00D+00 EMaxC= 1.00D-01 BMatC= 1.39D-01 BMatP= 7.67D-02
 IDIUse=2 WtCom= 0.00D+00 WtEn= 1.00D+00
 Coeff-En:   0.000D+00 0.000D+00 0.521D+00 0.000D+00 0.479D+00
 Coeff:      0.000D+00 0.000D+00 0.521D+00 0.000D+00 0.479D+00
 Gap=     0.152 Goal=   None    Shift=    0.000
 RMSDP=1.12D-03 MaxDP=6.24D-02 DE=-9.66D-01 OVMax= 1.23D-01

 Cycle   6  Pass 0  IDiag  1:
 RMSU=  1.63D-04    CP:  9.83D-01  1.42D+00  4.34D-01  1.19D-01  5.84D-01
 E= -698.335822989035     Delta-E=       -0.112898256477 Rises=F Damp=F
 DIIS: error= 1.37D-03 at cycle   6 NSaved=   6.
 NSaved= 6 IEnMin= 6 EnMin= -698.335822989035     IErMin= 6 ErrMin= 1.37D-03
 ErrMax= 1.37D-03  0.00D+00 EMaxC= 1.00D-01 BMatC= 9.55D-04 BMatP= 7.67D-02
 IDIUse=3 WtCom= 9.86D-01 WtEn= 1.37D-02
 Coeff-Com: -0.275D-01 0.493D-01 0.223D+00-0.386D-01 0.314D+00 0.480D+00
 Coeff-En:   0.000D+00 0.000D+00 0.000D+00 0.000D+00 0.000D+00 0.100D+01
 Coeff:     -0.271D-01 0.486D-01 0.220D+00-0.381D-01 0.310D+00 0.487D+00
 Gap=     0.159 Goal=   None    Shift=    0.000
 RMSDP=1.38D-04 MaxDP=8.12D-03 DE=-1.13D-01 OVMax= 1.30D-02

 Cycle   7  Pass 0  IDiag  1:
 RMSU=  8.22D-05    CP:  9.82D-01  1.45D+00  4.22D-01  1.40D-01  6.21D-01
                    CP:  5.23D-01
 E= -698.336288133711     Delta-E=       -0.000465144676 Rises=F Damp=F
 DIIS: error= 1.22D-03 at cycle   7 NSaved=   7.
 NSaved= 7 IEnMin= 7 EnMin= -698.336288133711     IErMin= 7 ErrMin= 1.22D-03
 ErrMax= 1.22D-03  0.00D+00 EMaxC= 1.00D-01 BMatC= 4.28D-04 BMatP= 9.55D-04
 IDIUse=3 WtCom= 9.88D-01 WtEn= 1.22D-02
 Coeff-Com: -0.127D-01 0.202D-01 0.903D-01-0.203D-01 0.129D+00 0.346D+00
 Coeff-Com:  0.448D+00
 Coeff-En:   0.000D+00 0.000D+00 0.000D+00 0.000D+00 0.000D+00 0.317D+00
 Coeff-En:   0.683D+00
 Coeff:     -0.126D-01 0.200D-01 0.892D-01-0.201D-01 0.127D+00 0.345D+00
 Coeff:      0.451D+00
 Gap=     0.157 Goal=   None    Shift=    0.000
 RMSDP=6.69D-05 MaxDP=3.03D-03 DE=-4.65D-04 OVMax= 4.83D-03

 Cycle   8  Pass 0  IDiag  1:
 RMSU=  2.96D-05    CP:  9.82D-01  1.45D+00  4.27D-01  1.30D-01  6.23D-01
                    CP:  5.90D-01  3.58D-01
 E= -698.336586357484     Delta-E=       -0.000298223773 Rises=F Damp=F
 DIIS: error= 3.45D-04 at cycle   8 NSaved=   8.
 NSaved= 8 IEnMin= 8 EnMin= -698.336586357484     IErMin= 8 ErrMin= 3.45D-04
 ErrMax= 3.45D-04  0.00D+00 EMaxC= 1.00D-01 BMatC= 4.63D-05 BMatP= 4.28D-04
 IDIUse=3 WtCom= 9.97D-01 WtEn= 3.45D-03
 Coeff-Com:  0.208D-02-0.519D-02 0.119D-01-0.130D-02 0.364D-02 0.146D+00
 Coeff-Com:  0.258D+00 0.585D+00
 Coeff-En:   0.000D+00 0.000D+00 0.000D+00 0.000D+00 0.000D+00 0.000D+00
 Coeff-En:   0.000D+00 0.100D+01
 Coeff:      0.207D-02-0.517D-02 0.119D-01-0.130D-02 0.363D-02 0.146D+00
 Coeff:      0.257D+00 0.586D+00
 Gap=     0.157 Goal=   None    Shift=    0.000
 RMSDP=2.32D-05 MaxDP=1.18D-03 DE=-2.98D-04 OVMax= 1.35D-03

 Cycle   9  Pass 0  IDiag  1:
 RMSU=  6.52D-06    CP:  9.82D-01  1.45D+00  4.34D-01  1.29D-01  6.12D-01
                    CP:  6.23D-01  4.60D-01  5.79D-01
 E= -698.336620765039     Delta-E=       -0.000034407555 Rises=F Damp=F
 DIIS: error= 5.20D-05 at cycle   9 NSaved=   9.
 NSaved= 9 IEnMin= 9 EnMin= -698.336620765039     IErMin= 9 ErrMin= 5.20D-05
 ErrMax= 5.20D-05  0.00D+00 EMaxC= 1.00D-01 BMatC= 1.18D-06 BMatP= 4.63D-05
 IDIUse=1 WtCom= 1.00D+00 WtEn= 0.00D+00
 Coeff-Com:  0.146D-02-0.276D-02 0.414D-02-0.113D-03-0.242D-02 0.660D-01
 Coeff-Com:  0.126D+00 0.326D+00 0.482D+00
 Coeff:      0.146D-02-0.276D-02 0.414D-02-0.113D-03-0.242D-02 0.660D-01
 Coeff:      0.126D+00 0.326D+00 0.482D+00
 Gap=     0.157 Goal=   None    Shift=    0.000
 RMSDP=4.04D-06 MaxDP=1.39D-04 DE=-3.44D-05 OVMax= 1.66D-04

 Initial convergence to 1.0D-05 achieved.  Increase integral accuracy.
 Cycle  10  Pass 1  IDiag  1:
 E= -698.336581385797     Delta-E=        0.000039379242 Rises=F Damp=F
 DIIS: error= 2.22D-05 at cycle   1 NSaved=   1.
 NSaved= 1 IEnMin= 1 EnMin= -698.336581385797     IErMin= 1 ErrMin= 2.22D-05
 ErrMax= 2.22D-05  0.00D+00 EMaxC= 1.00D-01 BMatC= 1.70D-07 BMatP= 1.70D-07
 IDIUse=1 WtCom= 1.00D+00 WtEn= 0.00D+00
 Coeff-Com:  0.100D+01
 Coeff:      0.100D+01
 Gap=     0.157 Goal=   None    Shift=    0.000
 RMSDP=4.04D-06 MaxDP=1.39D-04 DE= 3.94D-05 OVMax= 1.26D-04

 Cycle  11  Pass 1  IDiag  1:
 RMSU=  6.33D-06    CP:  1.00D+00
 E= -698.336581358315     Delta-E=        0.000000027482 Rises=F Damp=F
 DIIS: error= 2.82D-05 at cycle   2 NSaved=   2.
 NSaved= 2 IEnMin= 1 EnMin= -698.336581385797     IErMin= 1 ErrMin= 2.22D-05
 ErrMax= 2.82D-05  0.00D+00 EMaxC= 1.00D-01 BMatC= 2.33D-07 BMatP= 1.70D-07
 IDIUse=1 WtCom= 1.00D+00 WtEn= 0.00D+00
 Coeff-Com:  0.551D+00 0.449D+00
 Coeff:      0.551D+00 0.449D+00
 Gap=     0.157 Goal=   None    Shift=    0.000
 RMSDP=2.23D-06 MaxDP=1.22D-04 DE= 2.75D-08 OVMax= 1.90D-04

 Cycle  12  Pass 1  IDiag  1:
 RMSU=  2.12D-06    CP:  1.00D+00  8.93D-01
 E= -698.336581473976     Delta-E=       -0.000000115661 Rises=F Damp=F
 DIIS: error= 2.38D-05 at cycle   3 NSaved=   3.
 NSaved= 3 IEnMin= 3 EnMin= -698.336581473976     IErMin= 1 ErrMin= 2.22D-05
 ErrMax= 2.38D-05  0.00D+00 EMaxC= 1.00D-01 BMatC= 1.07D-07 BMatP= 1.70D-07
 IDIUse=1 WtCom= 1.00D+00 WtEn= 0.00D+00
 Coeff-Com:  0.149D+00 0.374D+00 0.477D+00
 Coeff:      0.149D+00 0.374D+00 0.477D+00
 Gap=     0.157 Goal=   None    Shift=    0.000
 RMSDP=1.29D-06 MaxDP=8.55D-05 DE=-1.16D-07 OVMax= 1.50D-04

 Cycle  13  Pass 1  IDiag  1:
 RMSU=  9.20D-07    CP:  1.00D+00  9.14D-01  5.79D-01
 E= -698.336581535062     Delta-E=       -0.000000061086 Rises=F Damp=F
 DIIS: error= 9.42D-06 at cycle   4 NSaved=   4.
 NSaved= 4 IEnMin= 4 EnMin= -698.336581535062     IErMin= 4 ErrMin= 9.42D-06
 ErrMax= 9.42D-06  0.00D+00 EMaxC= 1.00D-01 BMatC= 2.58D-08 BMatP= 1.07D-07
 IDIUse=1 WtCom= 1.00D+00 WtEn= 0.00D+00
 Coeff-Com:  0.106D-01 0.207D+00 0.377D+00 0.405D+00
 Coeff:      0.106D-01 0.207D+00 0.377D+00 0.405D+00
 Gap=     0.157 Goal=   None    Shift=    0.000
 RMSDP=5.42D-07 MaxDP=2.42D-05 DE=-6.11D-08 OVMax= 5.36D-05

 Cycle  14  Pass 1  IDiag  1:
 RMSU=  1.46D-07    CP:  1.00D+00  9.21D-01  6.29D-01  4.47D-01
 E= -698.336581556735     Delta-E=       -0.000000021672 Rises=F Damp=F
 DIIS: error= 1.22D-06 at cycle   5 NSaved=   5.
 NSaved= 5 IEnMin= 5 EnMin= -698.336581556735     IErMin= 5 ErrMin= 1.22D-06
 ErrMax= 1.22D-06  0.00D+00 EMaxC= 1.00D-01 BMatC= 6.91D-10 BMatP= 2.58D-08
 IDIUse=1 WtCom= 1.00D+00 WtEn= 0.00D+00
 Coeff-Com:  0.134D-02 0.120D+00 0.224D+00 0.258D+00 0.396D+00
 Coeff:      0.134D-02 0.120D+00 0.224D+00 0.258D+00 0.396D+00
 Gap=     0.157 Goal=   None    Shift=    0.000
 RMSDP=9.93D-08 MaxDP=4.44D-06 DE=-2.17D-08 OVMax= 4.89D-06

 Cycle  15  Pass 1  IDiag  1:
 RMSU=  4.05D-08    CP:  1.00D+00  9.22D-01  6.25D-01  4.37D-01  3.88D-01
 E= -698.336581557253     Delta-E=       -0.000000000518 Rises=F Damp=F
 DIIS: error= 1.97D-07 at cycle   6 NSaved=   6.
 NSaved= 6 IEnMin= 6 EnMin= -698.336581557253     IErMin= 6 ErrMin= 1.97D-07
 ErrMax= 1.97D-07  0.00D+00 EMaxC= 1.00D-01 BMatC= 2.48D-11 BMatP= 6.91D-10
 IDIUse=1 WtCom= 1.00D+00 WtEn= 0.00D+00
 Coeff-Com: -0.630D-04 0.479D-01 0.902D-01 0.106D+00 0.219D+00 0.537D+00
 Coeff:     -0.630D-04 0.479D-01 0.902D-01 0.106D+00 0.219D+00 0.537D+00
 Gap=     0.157 Goal=   None    Shift=    0.000
 RMSDP=2.15D-08 MaxDP=6.10D-07 DE=-5.18D-10 OVMax= 9.11D-07

 Cycle  16  Pass 1  IDiag  1:
 RMSU=  8.30D-09    CP:  1.00D+00  9.22D-01  6.25D-01  4.39D-01  4.21D-01
                    CP:  5.28D-01
 E= -698.336581557296     Delta-E=       -0.000000000043 Rises=F Damp=F
 DIIS: error= 4.86D-08 at cycle   7 NSaved=   7.
 NSaved= 7 IEnMin= 7 EnMin= -698.336581557296     IErMin= 7 ErrMin= 4.86D-08
 ErrMax= 4.86D-08  0.00D+00 EMaxC= 1.00D-01 BMatC= 1.28D-12 BMatP= 2.48D-11
 IDIUse=1 WtCom= 1.00D+00 WtEn= 0.00D+00
 Coeff-Com: -0.809D-04 0.228D-01 0.429D-01 0.507D-01 0.110D+00 0.304D+00
 Coeff-Com:  0.470D+00
 Coeff:     -0.809D-04 0.228D-01 0.429D-01 0.507D-01 0.110D+00 0.304D+00
 Coeff:      0.470D+00
 Gap=     0.157 Goal=   None    Shift=    0.000
 RMSDP=4.54D-09 MaxDP=1.86D-07 DE=-4.32D-11 OVMax= 2.25D-07

 SCF Done:  E(RB-LYP) =  -698.336581557     A.U. after   16 cycles
            NFock= 16  Conv=0.45D-08     -V/T= 2.0098
 KE= 6.915603268031D+02 PE=-3.894957603438D+03 EE= 1.370025567032D+03
 Leave Link  502 at Sat Jan 21 11:03:45 2023, MaxMem=   131072000 cpu:             297.4 elap:              37.6
 (Enter /dragofs/sw/campus/0.2/software/gaussian/16.gaussian/gaussian/g16_legacy/l801.exe)
 DoSCS=F DFT=T ScalE2(SS,OS)=  1.000000  1.000000
 Range of M.O.s used for correlation:     1   277
 NBasis=   277 NAE=    61 NBE=    61 NFC=     0 NFV=     0
 NROrb=    277 NOA=    61 NOB=    61 NVA=   216 NVB=   216
 Leave Link  801 at Sat Jan 21 11:03:45 2023, MaxMem=   131072000 cpu:               0.1 elap:               0.0
 (Enter /dragofs/sw/campus/0.2/software/gaussian/16.gaussian/gaussian/g16_legacy/l1101.exe)
 Using compressed storage, NAtomX=    41.
 Will process     42 centers per pass.
 R6Disp: Adding Grimme-D3 dispersion energy 1st derivatives to the gradient.
 Leave Link 1101 at Sat Jan 21 11:03:45 2023, MaxMem=   131072000 cpu:               1.7 elap:               0.2
 (Enter /dragofs/sw/campus/0.2/software/gaussian/16.gaussian/gaussian/g16_legacy/l1102.exe)
 Symmetrizing basis deriv contribution to polar:
 IMax=3 JMax=2 DiffMx= 0.00D+00
 Leave Link 1102 at Sat Jan 21 11:03:45 2023, MaxMem=   131072000 cpu:               0.3 elap:               0.1
 (Enter /dragofs/sw/campus/0.2/software/gaussian/16.gaussian/gaussian/g16_legacy/l1110.exe)
 Forming Gx(P) for the SCF density, NAtomX=    41.
 Integral derivatives from FoFJK, PRISM(SPDF).
 Do as many integral derivatives as possible in FoFJK.
 G2DrvN: MDV=     131068912.
 G2DrvN: will do    42 centers at a time, making    1 passes.
 Calling FoFCou, ICntrl=  3507 FMM=F I1Cent=   0 AccDes= 0.00D+00.
 FoFJK:  IHMeth= 1 ICntrl=    3507 DoSepK=F KAlg= 0 I1Cent=           0 FoldK=F
 IRaf=         0 NMat=       1 IRICut=       1 DoRegI=T DoRafI=F ISym2E= 0 IDoP0=0 IntGTp=1.
 FoFCou: FMM=F IPFlag=           0 FMFlag=      100000 FMFlg1=           0
         NFxFlg=           0 DoJE=F BraDBF=F KetDBF=F FulRan=T
         wScrn=  0.000000 ICntrl=      3507 IOpCl=  0 I1Cent=           0 NGrid=           0
         NMat0=    1 NMatS0=      1 NMatT0=    0 NMatD0=    1 NMtDS0=    0 NMtDT0=    0
 Symmetry not used in FoFCou.
 End of G2Drv F.D. properties file   721 does not exist.
 End of G2Drv F.D. properties file   722 does not exist.
 End of G2Drv F.D. properties file   788 does not exist.
 Leave Link 1110 at Sat Jan 21 11:06:48 2023, MaxMem=   131072000 cpu:            1444.8 elap:             182.5
 (Enter /dragofs/sw/campus/0.2/software/gaussian/16.gaussian/gaussian/g16_legacy/l1002.exe)
 Minotr:  Closed shell wavefunction.
          IDoAtm=11111111111111111111111111111111111111111
          Direct CPHF calculation.
          Differentiating once with respect to electric field.
                with respect to dipole field.
          Differentiating once with respect to nuclear coordinates.
          Requested convergence is 1.0D-08 RMS, and 1.0D-07 maximum.
          Secondary convergence is 1.0D-12 RMS, and 1.0D-12 maximum.
          NewPWx=T KeepS1=F KeepF1=F KeepIn=T MapXYZ=F SortEE=F KeepMc=T.
        12359 words used for storage of precomputed grid.
 Two-electron integrals replicated using symmetry.
          MDV=     131072000 using IRadAn=       1.
          Solving linear equations simultaneously, MaxMat=     384.
 FoF2E skips out because all densities are zero.
 CalDSu exits because no D1Ps are significant.
 FoFJK:  IHMeth= 1 ICntrl=     500 DoSepK=F KAlg= 0 I1Cent=           0 FoldK=F
 IRaf= 840000000 NMat=     123 IRICut=       1 DoRegI=T DoRafI=F ISym2E= 2 IDoP0=0 IntGTp=1.
 FoFCou: FMM=F IPFlag=           0 FMFlag=      100000 FMFlg1=           0
         NFxFlg=           0 DoJE=F BraDBF=F KetDBF=F FulRan=T
         wScrn=  0.000000 ICntrl=       500 IOpCl=  0 I1Cent=           0 NGrid=           0
         NMat0=  123 NMatS0=    123 NMatT0=    0 NMatD0=  123 NMtDS0=    0 NMtDT0=    0
 Integrals replicated using symmetry in FoFCou.
          There are   126 degrees of freedom in the 1st order CPHF.  IDoFFX=6 NUNeed=     3.
    123 vectors produced by pass  0 Test12= 1.32D-14 1.00D-09 XBig12= 1.44D+02 4.39D+00.
 AX will form   123 AO Fock derivatives at one time.
    123 vectors produced by pass  1 Test12= 1.32D-14 1.00D-09 XBig12= 6.60D+01 2.72D+00.
    123 vectors produced by pass  2 Test12= 1.32D-14 1.00D-09 XBig12= 1.15D-01 2.97D-02.
    123 vectors produced by pass  3 Test12= 1.32D-14 1.00D-09 XBig12= 5.09D-05 3.98D-04.
     82 vectors produced by pass  4 Test12= 1.32D-14 1.00D-09 XBig12= 3.50D-09 4.37D-06.
      3 vectors produced by pass  5 Test12= 1.32D-14 1.00D-09 XBig12= 3.13D-13 6.75D-08.
 InvSVY:  IOpt=1 It=  1 EMax= 2.13D-14
 Solved reduced A of dimension   577 with   126 vectors.
 FullF1:  Do perturbations      1 to       3.
 Isotropic polarizability for W=    0.000000      145.46 Bohr**3.
 End of Minotr F.D. properties file   721 does not exist.
 End of Minotr F.D. properties file   722 does not exist.
 End of Minotr F.D. properties file   788 does not exist.
 Leave Link 1002 at Sat Jan 21 11:09:38 2023, MaxMem=   131072000 cpu:            1345.7 elap:             169.9
 (Enter /dragofs/sw/campus/0.2/software/gaussian/16.gaussian/gaussian/g16_legacy/l601.exe)
 Copying SCF densities to generalized density rwf, IOpCl= 0 IROHF=0.

 **********************************************************************

            Population analysis using the SCF density.

 **********************************************************************

 Orbital symmetries:
       Occupied  (A) (A) (A) (A) (A) (A) (A) (A) (A) (A) (A) (A)
                 (A) (A) (A) (A) (A) (A) (A) (A) (A) (A) (A) (A)
                 (A) (A) (A) (A) (A) (A) (A) (A) (A) (A) (A) (A)
                 (A) (A) (A) (A) (A) (A) (A) (A) (A) (A) (A) (A)
                 (A) (A) (A) (A) (A) (A) (A) (A) (A) (A) (A) (A)
                 (A)
       Virtual   (A) (A) (A) (A) (A) (A) (A) (A) (A) (A) (A) (A)
                 (A) (A) (A) (A) (A) (A) (A) (A) (A) (A) (A) (A)
                 (A) (A) (A) (A) (A) (A) (A) (A) (A) (A) (A) (A)
                 (A) (A) (A) (A) (A) (A) (A) (A) (A) (A) (A) (A)
                 (A) (A) (A) (A) (A) (A) (A) (A) (A) (A) (A) (A)
                 (A) (A) (A) (A) (A) (A) (A) (A) (A) (A) (A) (A)
                 (A) (A) (A) (A) (A) (A) (A) (A) (A) (A) (A) (A)
                 (A) (A) (A) (A) (A) (A) (A) (A) (A) (A) (A) (A)
                 (A) (A) (A) (A) (A) (A) (A) (A) (A) (A) (A) (A)
                 (A) (A) (A) (A) (A) (A) (A) (A) (A) (A) (A) (A)
                 (A) (A) (A) (A) (A) (A) (A) (A) (A) (A) (A) (A)
                 (A) (A) (A) (A) (A) (A) (A) (A) (A) (A) (A) (A)
                 (A) (A) (A) (A) (A) (A) (A) (A) (A) (A) (A) (A)
                 (A) (A) (A) (A) (A) (A) (A) (A) (A) (A) (A) (A)
                 (A) (A) (A) (A) (A) (A) (A) (A) (A) (A) (A) (A)
                 (A) (A) (A) (A) (A) (A) (A) (A) (A) (A) (A) (A)
                 (A) (A) (A) (A) (A) (A) (A) (A) (A) (A) (A) (A)
                 (A) (A) (A) (A) (A) (A) (A) (A) (A) (A) (A) (A)
 The electronic state is 1-A.
 Alpha  occ. eigenvalues --  -18.84070 -18.79618 -18.76365 -10.05851  -9.97743
 Alpha  occ. eigenvalues --   -9.95128  -9.94099  -9.92838  -9.92478  -9.91734
 Alpha  occ. eigenvalues --   -9.90782  -9.90755  -9.90431  -9.90389  -9.89686
 Alpha  occ. eigenvalues --   -0.99149  -0.91662  -0.88495  -0.72563  -0.68544
 Alpha  occ. eigenvalues --   -0.67207  -0.66933  -0.65413  -0.60624  -0.58103
 Alpha  occ. eigenvalues --   -0.54029  -0.53401  -0.51753  -0.50464  -0.48971
 Alpha  occ. eigenvalues --   -0.44041  -0.42280  -0.40791  -0.40128  -0.38690
 Alpha  occ. eigenvalues --   -0.38408  -0.38098  -0.37967  -0.37566  -0.36282
 Alpha  occ. eigenvalues --   -0.35842  -0.35321  -0.34285  -0.33430  -0.33046
 Alpha  occ. eigenvalues --   -0.32400  -0.31355  -0.30802  -0.30691  -0.29688
 Alpha  occ. eigenvalues --   -0.29194  -0.29178  -0.28791  -0.28029  -0.27592
 Alpha  occ. eigenvalues --   -0.27166  -0.26871  -0.24782  -0.24359  -0.22442
 Alpha  occ. eigenvalues --   -0.18779
 Alpha virt. eigenvalues --   -0.03035   0.05153   0.06775   0.07647   0.07850
 Alpha virt. eigenvalues --    0.08219   0.10143   0.10682   0.11201   0.11689
 Alpha virt. eigenvalues --    0.12325   0.12445   0.13079   0.13549   0.13802
 Alpha virt. eigenvalues --    0.14646   0.15021   0.15224   0.15582   0.16086
 Alpha virt. eigenvalues --    0.16215   0.16855   0.17194   0.17375   0.17964
 Alpha virt. eigenvalues --    0.18758   0.19252   0.20060   0.20290   0.20970
 Alpha virt. eigenvalues --    0.21364   0.21998   0.22725   0.23716   0.24479
 Alpha virt. eigenvalues --    0.24688   0.25174   0.26765   0.28135   0.35142
 Alpha virt. eigenvalues --    0.44174   0.44755   0.46346   0.47442   0.48052
 Alpha virt. eigenvalues --    0.49727   0.49772   0.50570   0.51248   0.52106
 Alpha virt. eigenvalues --    0.53624   0.53784   0.55286   0.55666   0.56075
 Alpha virt. eigenvalues --    0.57012   0.57518   0.58479   0.58941   0.59480
 Alpha virt. eigenvalues --    0.60612   0.61576   0.62675   0.63711   0.65191
 Alpha virt. eigenvalues --    0.67137   0.69167   0.70092   0.71115   0.73281
 Alpha virt. eigenvalues --    0.74209   0.74313   0.75057   0.75703   0.76551
 Alpha virt. eigenvalues --    0.78076   0.79792   0.80610   0.82108   0.83083
 Alpha virt. eigenvalues --    0.83540   0.84031   0.84834   0.85567   0.86009
 Alpha virt. eigenvalues --    0.86533   0.86912   0.87121   0.88301   0.88633
 Alpha virt. eigenvalues --    0.88810   0.89642   0.90406   0.91300   0.91686
 Alpha virt. eigenvalues --    0.92196   0.93088   0.94575   0.95779   0.96289
 Alpha virt. eigenvalues --    0.97537   0.98196   1.00246   1.01518   1.02273
 Alpha virt. eigenvalues --    1.05272   1.08037   1.09483   1.10016   1.11419
 Alpha virt. eigenvalues --    1.12713   1.16386   1.22614   1.26335   1.28748
 Alpha virt. eigenvalues --    1.29707   1.30770   1.33365   1.34932   1.36599
 Alpha virt. eigenvalues --    1.37271   1.39497   1.43877   1.44755   1.45555
 Alpha virt. eigenvalues --    1.51663   1.53074   1.53825   1.54782   1.56979
 Alpha virt. eigenvalues --    1.60354   1.63398   1.67596   1.67879   1.68280
 Alpha virt. eigenvalues --    1.70038   1.70412   1.71433   1.74717   1.74852
 Alpha virt. eigenvalues --    1.76536   1.78857   1.79254   1.81082   1.81595
 Alpha virt. eigenvalues --    1.82256   1.84972   1.85329   1.86262   1.88187
 Alpha virt. eigenvalues --    1.89334   1.90360   1.90667   1.91105   1.91954
 Alpha virt. eigenvalues --    1.94352   1.95283   1.95612   1.97328   1.98082
 Alpha virt. eigenvalues --    2.00348   2.01893   2.06160   2.07777   2.09707
 Alpha virt. eigenvalues --    2.12750   2.13376   2.13856   2.16489   2.19410
 Alpha virt. eigenvalues --    2.20858   2.22435   2.23028   2.24038   2.25138
 Alpha virt. eigenvalues --    2.25701   2.27478   2.29406   2.31310   2.32087
 Alpha virt. eigenvalues --    2.33681   2.34391   2.35226   2.40481   2.45832
 Alpha virt. eigenvalues --    2.46377   2.47312   2.49726   2.52913   2.54870
 Alpha virt. eigenvalues --    2.55249   2.61609   2.66428   2.66587   2.70582
 Alpha virt. eigenvalues --    2.72233   2.73440   2.87322   2.90361   2.95119
 Alpha virt. eigenvalues --    3.01784   3.81011   3.92012   4.02710   4.04629
 Alpha virt. eigenvalues --    4.05945   4.12716   4.13057   4.17317   4.27924
 Alpha virt. eigenvalues --    4.30296   4.33924   4.35050   4.36258   4.50221
 Alpha virt. eigenvalues --    4.56165
          Condensed to atoms (all electrons):
               1          2          3          4          5          6
     1  H    0.614428   0.359675  -0.025632  -0.034207  -0.030978  -0.002128
     2  C    0.359675   5.043149   0.372869   0.370255   0.368039  -0.035798
     3  C   -0.025632   0.372869   5.055316  -0.034533  -0.035009   0.335468
     4  H   -0.034207   0.370255  -0.034533   0.606683  -0.031717  -0.004797
     5  H   -0.030978   0.368039  -0.035009  -0.031717   0.577658   0.005730
     6  H   -0.002128  -0.035798   0.335468  -0.004797   0.005730   0.656072
     7  H   -0.003198  -0.038102   0.356524   0.005301  -0.004157  -0.037318
     8  C    0.003687  -0.033461   0.368340  -0.003960  -0.007858  -0.027730
     9  C   -0.000103   0.004758  -0.044832   0.000024   0.000522   0.000033
    10  H   -0.000058  -0.005482  -0.051874   0.005593  -0.000655  -0.001904
    11  H   -0.000008  -0.000096  -0.000417  -0.000003  -0.000021   0.003313
    12  H    0.000003  -0.000026  -0.006949   0.000008   0.000000   0.000074
    13  O    0.000218  -0.005344  -0.040117  -0.000234   0.014704   0.003455
    14  H   -0.000047  -0.000271  -0.007791   0.000051   0.001240   0.000209
    15  C    0.000001  -0.000150   0.004383   0.000001  -0.000001  -0.000107
    16  H    0.000000  -0.000000   0.000016  -0.000001   0.000000  -0.000003
    17  H   -0.000000   0.000001  -0.000118   0.000000   0.000000  -0.000005
    18  H    0.000000   0.000000   0.000394  -0.000000  -0.000004  -0.000015
    19  H    0.000000   0.000000  -0.000002  -0.000000   0.000000   0.000000
    20  C   -0.000000   0.000000   0.000001   0.000000  -0.000000  -0.000000
    21  C   -0.000000  -0.000000   0.000000  -0.000000  -0.000000  -0.000000
    22  H   -0.000000   0.000000   0.000000   0.000000   0.000000  -0.000000
    23  H    0.000000  -0.000000  -0.000000  -0.000000  -0.000000  -0.000000
    24  H   -0.000000   0.000000  -0.000000   0.000000   0.000000   0.000000
    25  H    0.000000   0.000000  -0.000000   0.000000   0.000000   0.000000
    26  C    0.000000  -0.000000  -0.000031   0.000000   0.000005   0.000001
    27  C   -0.000000   0.000000   0.000001  -0.000000  -0.000000  -0.000000
    28  H   -0.000000   0.000002   0.000240  -0.000000  -0.000036  -0.000015
    29  H    0.000000   0.000000  -0.000000  -0.000000  -0.000000  -0.000000
    30  H    0.000000  -0.000000   0.000000  -0.000000   0.000000  -0.000000
    31  O   -0.000000  -0.000000  -0.000001   0.000000  -0.000000   0.000000
    32  C   -0.000000  -0.000003   0.000021   0.000000   0.000005   0.000000
    33  O   -0.000001  -0.000026  -0.002047  -0.000000   0.000060   0.000017
    34  C    0.000000   0.000000  -0.000000  -0.000000  -0.000000  -0.000000
    35  H   -0.000000  -0.000000  -0.000001   0.000000   0.000000   0.000000
    36  H    0.000000  -0.000000   0.000000   0.000000   0.000000  -0.000000
    37  H   -0.000000  -0.000000  -0.000000   0.000000   0.000000   0.000000
    38  C   -0.000000  -0.000002  -0.000011   0.000000   0.000002   0.000000
    39  H    0.000000   0.000000   0.000054  -0.000001   0.000044  -0.000001
    40  H    0.000000   0.000000   0.000000   0.000000  -0.000000  -0.000000
    41  H   -0.000000   0.000000  -0.000000  -0.000000  -0.000000  -0.000000
               7          8          9         10         11         12
     1  H   -0.003198   0.003687  -0.000103  -0.000058  -0.000008   0.000003
     2  C   -0.038102  -0.033461   0.004758  -0.005482  -0.000096  -0.000026
     3  C    0.356524   0.368340  -0.044832  -0.051874  -0.000417  -0.006949
     4  H    0.005301  -0.003960   0.000024   0.005593  -0.000003   0.000008
     5  H   -0.004157  -0.007858   0.000522  -0.000655  -0.000021   0.000000
     6  H   -0.037318  -0.027730   0.000033  -0.001904   0.003313   0.000074
     7  H    0.614798  -0.031797  -0.008207   0.006392   0.000203   0.005403
     8  C   -0.031797   4.709450   0.351578   0.369870  -0.026939  -0.029047
     9  C   -0.008207   0.351578   5.090514  -0.063295   0.333830   0.350668
    10  H    0.006392   0.369870  -0.063295   0.674888   0.000054   0.006243
    11  H    0.000203  -0.026939   0.333830   0.000054   0.652997  -0.035737
    12  H    0.005403  -0.029047   0.350668   0.006243  -0.035737   0.620816
    13  O   -0.003705   0.266059  -0.050538  -0.045327   0.003518  -0.003945
    14  H    0.003655  -0.024605  -0.002068   0.006139  -0.000174   0.003490
    15  C    0.000038  -0.029613   0.370243  -0.004516  -0.036741  -0.042301
    16  H    0.000007  -0.003887  -0.032735   0.005226  -0.004911   0.005465
    17  H    0.000004   0.003610  -0.026016  -0.000016  -0.001673  -0.004439
    18  H    0.000006  -0.007058  -0.036422  -0.000305   0.005558  -0.003875
    19  H   -0.000004  -0.000031   0.000536   0.000002  -0.000067   0.004825
    20  C   -0.000000   0.000028  -0.001177  -0.000001   0.000022   0.000263
    21  C    0.000000  -0.000002   0.000033   0.000001   0.000002  -0.000065
    22  H   -0.000000  -0.000001   0.000008  -0.000000  -0.000000  -0.000009
    23  H    0.000000  -0.000000   0.000029   0.000000  -0.000001  -0.000023
    24  H   -0.000000  -0.000001  -0.000037  -0.000000   0.000001  -0.000023
    25  H   -0.000000  -0.000000  -0.000003  -0.000000   0.000000  -0.000002
    26  C   -0.000007  -0.000255  -0.000050  -0.000021  -0.000019  -0.000163
    27  C    0.000000   0.000001   0.000011  -0.000001  -0.000000   0.000004
    28  H   -0.000044   0.000092  -0.000482   0.000077   0.000162   0.001400
    29  H    0.000000  -0.000001  -0.000003   0.000000   0.000000   0.000004
    30  H   -0.000000   0.000000  -0.000000  -0.000000   0.000000  -0.000000
    31  O    0.000010  -0.000001   0.000020   0.000000   0.000000  -0.000141
    32  C    0.000215  -0.000006  -0.000024   0.000003  -0.000002   0.000728
    33  O    0.005478   0.001156  -0.001818  -0.000026   0.000021   0.004759
    34  C   -0.000019   0.000001  -0.000004  -0.000000   0.000000   0.000026
    35  H    0.000012  -0.000000   0.000000   0.000000  -0.000000  -0.000001
    36  H   -0.000000  -0.000000   0.000001   0.000000  -0.000000  -0.000006
    37  H    0.000000   0.000000  -0.000000   0.000000   0.000000   0.000000
    38  C    0.000001   0.000192  -0.000022   0.000006   0.000000   0.000002
    39  H   -0.000008  -0.000347   0.000073  -0.000069  -0.000001  -0.000016
    40  H   -0.000000  -0.000002   0.000000   0.000000  -0.000000  -0.000000
    41  H   -0.000000  -0.000004   0.000000  -0.000000   0.000000   0.000000
              13         14         15         16         17         18
     1  H    0.000218  -0.000047   0.000001   0.000000  -0.000000   0.000000
     2  C   -0.005344  -0.000271  -0.000150  -0.000000   0.000001   0.000000
     3  C   -0.040117  -0.007791   0.004383   0.000016  -0.000118   0.000394
     4  H   -0.000234   0.000051   0.000001  -0.000001   0.000000  -0.000000
     5  H    0.014704   0.001240  -0.000001   0.000000   0.000000  -0.000004
     6  H    0.003455   0.000209  -0.000107  -0.000003  -0.000005  -0.000015
     7  H   -0.003705   0.003655   0.000038   0.000007   0.000004   0.000006
     8  C    0.266059  -0.024605  -0.029613  -0.003887   0.003610  -0.007058
     9  C   -0.050538  -0.002068   0.370243  -0.032735  -0.026016  -0.036422
    10  H   -0.045327   0.006139  -0.004516   0.005226  -0.000016  -0.000305
    11  H    0.003518  -0.000174  -0.036741  -0.004911  -0.001673   0.005558
    12  H   -0.003945   0.003490  -0.042301   0.005465  -0.004439  -0.003875
    13  O    8.282617   0.183066  -0.003734  -0.000158   0.000151   0.009858
    14  H    0.183066   0.377469  -0.000200   0.000019  -0.000008  -0.000863
    15  C   -0.003734  -0.000200   5.063493   0.365737   0.359271   0.370281
    16  H   -0.000158   0.000019   0.365737   0.604271  -0.032934  -0.030497
    17  H    0.000151  -0.000008   0.359271  -0.032934   0.611452  -0.033666
    18  H    0.009858  -0.000863   0.370281  -0.030497  -0.033666   0.572122
    19  H   -0.000030  -0.000018   0.001744  -0.000015   0.002663  -0.000362
    20  C    0.000005  -0.000001  -0.000885   0.000032   0.000185  -0.000177
    21  C    0.000135  -0.000072  -0.000231   0.000005  -0.000120   0.000067
    22  H   -0.000000   0.000006   0.000017  -0.000000  -0.000001   0.000011
    23  H    0.000000   0.000000  -0.000037  -0.000000   0.000061  -0.000005
    24  H   -0.000010   0.000024   0.000665  -0.000028   0.000324   0.001779
    25  H   -0.000001  -0.000001   0.000012  -0.000000   0.000005   0.000002
    26  C   -0.008965   0.001516  -0.000414   0.000028  -0.000041  -0.001125
    27  C    0.000250  -0.000285  -0.000044   0.000000   0.000001   0.000003
    28  H    0.028425  -0.003265  -0.000969  -0.000026  -0.000084   0.005555
    29  H   -0.000001   0.000021  -0.000013  -0.000001  -0.000004   0.000576
    30  H   -0.000001  -0.000013  -0.000000   0.000000  -0.000000  -0.000002
    31  O    0.000117  -0.000886   0.000009  -0.000000   0.000000   0.000021
    32  C    0.000154  -0.001650  -0.000002   0.000000  -0.000001  -0.000020
    33  O   -0.013648   0.049760  -0.000006  -0.000001  -0.000000  -0.000017
    34  C   -0.000025   0.000645   0.000000  -0.000000   0.000000  -0.000000
    35  H    0.000000  -0.000014   0.000000   0.000000  -0.000000   0.000000
    36  H    0.000000  -0.000006  -0.000000   0.000000  -0.000000   0.000000
    37  H    0.000000  -0.000023   0.000000   0.000000  -0.000000   0.000000
    38  C   -0.005611   0.002615  -0.000001   0.000000  -0.000000  -0.000015
    39  H    0.018358  -0.003051  -0.000011  -0.000000   0.000001   0.000053
    40  H    0.000058  -0.000018   0.000000   0.000000   0.000000  -0.000001
    41  H   -0.000009   0.000207  -0.000000   0.000000  -0.000000   0.000003
              19         20         21         22         23         24
     1  H    0.000000  -0.000000  -0.000000  -0.000000   0.000000  -0.000000
     2  C    0.000000   0.000000  -0.000000   0.000000  -0.000000   0.000000
     3  C   -0.000002   0.000001   0.000000   0.000000  -0.000000  -0.000000
     4  H   -0.000000   0.000000  -0.000000   0.000000  -0.000000   0.000000
     5  H    0.000000  -0.000000  -0.000000   0.000000  -0.000000   0.000000
     6  H    0.000000  -0.000000  -0.000000  -0.000000  -0.000000   0.000000
     7  H   -0.000004  -0.000000   0.000000  -0.000000   0.000000  -0.000000
     8  C   -0.000031   0.000028  -0.000002  -0.000001  -0.000000  -0.000001
     9  C    0.000536  -0.001177   0.000033   0.000008   0.000029  -0.000037
    10  H    0.000002  -0.000001   0.000001  -0.000000   0.000000  -0.000000
    11  H   -0.000067   0.000022   0.000002  -0.000000  -0.000001   0.000001
    12  H    0.004825   0.000263  -0.000065  -0.000009  -0.000023  -0.000023
    13  O   -0.000030   0.000005   0.000135  -0.000000   0.000000  -0.000010
    14  H   -0.000018  -0.000001  -0.000072   0.000006   0.000000   0.000024
    15  C    0.001744  -0.000885  -0.000231   0.000017  -0.000037   0.000665
    16  H   -0.000015   0.000032   0.000005  -0.000000  -0.000000  -0.000028
    17  H    0.002663   0.000185  -0.000120  -0.000001   0.000061   0.000324
    18  H   -0.000362  -0.000177   0.000067   0.000011  -0.000005   0.001779
    19  H    0.562501   0.370185  -0.034280  -0.031935  -0.029682  -0.004553
    20  C    0.370185   5.065029   0.370594   0.368604   0.362617  -0.033077
    21  C   -0.034280   0.370594   4.994874  -0.033918  -0.024194   0.353498
    22  H   -0.031935   0.368604  -0.033918   0.590036  -0.031401   0.005419
    23  H   -0.029682   0.362617  -0.024194  -0.031401   0.592396  -0.002766
    24  H   -0.004553  -0.033077   0.353498   0.005419  -0.002766   0.614358
    25  H    0.005085  -0.038276   0.355810  -0.003858  -0.002532  -0.036476
    26  C   -0.003393  -0.030782   0.371578  -0.008330   0.003625  -0.031644
    27  C    0.000049   0.003882  -0.039222   0.000190  -0.000111  -0.000959
    28  H    0.003652  -0.004810  -0.042095  -0.000120   0.000049  -0.002870
    29  H   -0.000002   0.000035  -0.000714  -0.000004  -0.000004   0.003051
    30  H    0.000006  -0.000046  -0.006850   0.000009   0.000002  -0.000101
    31  O   -0.000242  -0.003490  -0.042746   0.008721   0.000168   0.003135
    32  C    0.000075   0.001682   0.001033   0.001134  -0.000026   0.000000
    33  O   -0.000135  -0.000080   0.000471  -0.000195   0.000001   0.000004
    34  C   -0.000007  -0.000203  -0.000367   0.000090   0.000002   0.000008
    35  H    0.000000   0.000001   0.000002  -0.000001  -0.000000  -0.000000
    36  H    0.000002   0.000027   0.000045   0.000818  -0.000003  -0.000000
    37  H   -0.000000   0.000007  -0.000013  -0.000008  -0.000000  -0.000000
    38  C    0.000001  -0.000140   0.003901   0.000000   0.000001  -0.000002
    39  H   -0.000001  -0.000000   0.000052   0.000000   0.000000  -0.000005
    40  H    0.000000   0.000001  -0.000121   0.000000  -0.000000  -0.000000
    41  H    0.000000   0.000002   0.000178  -0.000001   0.000000  -0.000001
              25         26         27         28         29         30
     1  H    0.000000   0.000000  -0.000000  -0.000000   0.000000   0.000000
     2  C    0.000000  -0.000000   0.000000   0.000002   0.000000  -0.000000
     3  C   -0.000000  -0.000031   0.000001   0.000240  -0.000000   0.000000
     4  H    0.000000   0.000000  -0.000000  -0.000000  -0.000000  -0.000000
     5  H    0.000000   0.000005  -0.000000  -0.000036  -0.000000   0.000000
     6  H    0.000000   0.000001  -0.000000  -0.000015  -0.000000  -0.000000
     7  H   -0.000000  -0.000007   0.000000  -0.000044   0.000000  -0.000000
     8  C   -0.000000  -0.000255   0.000001   0.000092  -0.000001   0.000000
     9  C   -0.000003  -0.000050   0.000011  -0.000482  -0.000003  -0.000000
    10  H   -0.000000  -0.000021  -0.000001   0.000077   0.000000  -0.000000
    11  H    0.000000  -0.000019  -0.000000   0.000162   0.000000   0.000000
    12  H   -0.000002  -0.000163   0.000004   0.001400   0.000004  -0.000000
    13  O   -0.000001  -0.008965   0.000250   0.028425  -0.000001  -0.000001
    14  H   -0.000001   0.001516  -0.000285  -0.003265   0.000021  -0.000013
    15  C    0.000012  -0.000414  -0.000044  -0.000969  -0.000013  -0.000000
    16  H   -0.000000   0.000028   0.000000  -0.000026  -0.000001   0.000000
    17  H    0.000005  -0.000041   0.000001  -0.000084  -0.000004  -0.000000
    18  H    0.000002  -0.001125   0.000003   0.005555   0.000576  -0.000002
    19  H    0.005085  -0.003393   0.000049   0.003652  -0.000002   0.000006
    20  C   -0.038276  -0.030782   0.003882  -0.004810   0.000035  -0.000046
    21  C    0.355810   0.371578  -0.039222  -0.042095  -0.000714  -0.006850
    22  H   -0.003858  -0.008330   0.000190  -0.000120  -0.000004   0.000009
    23  H   -0.002532   0.003625  -0.000111   0.000049  -0.000004   0.000002
    24  H   -0.036476  -0.031644  -0.000959  -0.002870   0.003051  -0.000101
    25  H    0.624106  -0.031727  -0.006508   0.005510  -0.000044   0.006302
    26  C   -0.031727   4.894781   0.385114   0.314085  -0.035025  -0.033461
    27  C   -0.006508   0.385114   4.975742  -0.048714   0.354135   0.357327
    28  H    0.005510   0.314085  -0.048714   0.614732  -0.001254   0.006096
    29  H   -0.000044  -0.035025   0.354135  -0.001254   0.620392  -0.036833
    30  H    0.006302  -0.033461   0.357327   0.006096  -0.036833   0.627582
    31  O   -0.001139   0.153198  -0.037594  -0.031277   0.003165  -0.001089
    32  C   -0.000271   0.000176  -0.001747  -0.006328   0.000022  -0.000291
    33  O   -0.000008  -0.003870  -0.000309   0.009609  -0.000004  -0.000011
    34  C    0.000005   0.005575  -0.000288   0.000394   0.000006  -0.000007
    35  H    0.000000  -0.000166   0.000008   0.000014  -0.000000   0.000001
    36  H    0.000005  -0.000233  -0.000012  -0.000017   0.000000   0.000001
    37  H    0.000004  -0.000187   0.000038   0.000011   0.000000   0.000015
    38  C   -0.000023  -0.030540   0.373142  -0.005055  -0.033205  -0.038185
    39  H    0.000006  -0.003665  -0.031041   0.003476  -0.004420   0.004720
    40  H    0.000001   0.003883  -0.024895   0.000116  -0.003010  -0.002950
    41  H    0.000002  -0.007988  -0.034139  -0.000258   0.005429  -0.003712
              31         32         33         34         35         36
     1  H   -0.000000  -0.000000  -0.000001   0.000000  -0.000000   0.000000
     2  C   -0.000000  -0.000003  -0.000026   0.000000  -0.000000  -0.000000
     3  C   -0.000001   0.000021  -0.002047  -0.000000  -0.000001   0.000000
     4  H    0.000000   0.000000  -0.000000  -0.000000   0.000000   0.000000
     5  H   -0.000000   0.000005   0.000060  -0.000000   0.000000   0.000000
     6  H    0.000000   0.000000   0.000017  -0.000000   0.000000  -0.000000
     7  H    0.000010   0.000215   0.005478  -0.000019   0.000012  -0.000000
     8  C   -0.000001  -0.000006   0.001156   0.000001  -0.000000  -0.000000
     9  C    0.000020  -0.000024  -0.001818  -0.000004   0.000000   0.000001
    10  H    0.000000   0.000003  -0.000026  -0.000000   0.000000   0.000000
    11  H    0.000000  -0.000002   0.000021   0.000000  -0.000000  -0.000000
    12  H   -0.000141   0.000728   0.004759   0.000026  -0.000001  -0.000006
    13  O    0.000117   0.000154  -0.013648  -0.000025   0.000000   0.000000
    14  H   -0.000886  -0.001650   0.049760   0.000645  -0.000014  -0.000006
    15  C    0.000009  -0.000002  -0.000006   0.000000   0.000000  -0.000000
    16  H   -0.000000   0.000000  -0.000001  -0.000000   0.000000   0.000000
    17  H    0.000000  -0.000001  -0.000000   0.000000  -0.000000  -0.000000
    18  H    0.000021  -0.000020  -0.000017  -0.000000   0.000000   0.000000
    19  H   -0.000242   0.000075  -0.000135  -0.000007   0.000000   0.000002
    20  C   -0.003490   0.001682  -0.000080  -0.000203   0.000001   0.000027
    21  C   -0.042746   0.001033   0.000471  -0.000367   0.000002   0.000045
    22  H    0.008721   0.001134  -0.000195   0.000090  -0.000001   0.000818
    23  H    0.000168  -0.000026   0.000001   0.000002  -0.000000  -0.000003
    24  H    0.003135   0.000000   0.000004   0.000008  -0.000000  -0.000000
    25  H   -0.001139  -0.000271  -0.000008   0.000005   0.000000   0.000005
    26  C    0.153198   0.000176  -0.003870   0.005575  -0.000166  -0.000233
    27  C   -0.037594  -0.001747  -0.000309  -0.000288   0.000008  -0.000012
    28  H   -0.031277  -0.006328   0.009609   0.000394   0.000014  -0.000017
    29  H    0.003165   0.000022  -0.000004   0.000006  -0.000000   0.000000
    30  H   -0.001089  -0.000291  -0.000011  -0.000007   0.000001   0.000001
    31  O    8.283469   0.234137  -0.067209  -0.094125   0.003477   0.001302
    32  C    0.234137   4.394481   0.503658   0.350576  -0.020962  -0.019245
    33  O   -0.067209   0.503658   8.031460  -0.069600   0.004119   0.000601
    34  C   -0.094125   0.350576  -0.069600   5.242168   0.350197   0.352814
    35  H    0.003477  -0.020962   0.004119   0.350197   0.541327  -0.023105
    36  H    0.001302  -0.019245   0.000601   0.352814  -0.023105   0.539661
    37  H    0.003710  -0.018320   0.001484   0.347716  -0.023611  -0.024591
    38  C   -0.003190   0.002396   0.000342  -0.000079   0.000001   0.000002
    39  H   -0.000164   0.000061  -0.000261  -0.000003   0.000000  -0.000000
    40  H    0.000022  -0.000033   0.000027   0.000002   0.000000   0.000000
    41  H    0.005110   0.003691  -0.000262   0.000026  -0.000015   0.000005
              37         38         39         40         41
     1  H   -0.000000  -0.000000   0.000000   0.000000  -0.000000
     2  C   -0.000000  -0.000002   0.000000   0.000000   0.000000
     3  C   -0.000000  -0.000011   0.000054   0.000000  -0.000000
     4  H    0.000000   0.000000  -0.000001   0.000000  -0.000000
     5  H    0.000000   0.000002   0.000044  -0.000000  -0.000000
     6  H    0.000000   0.000000  -0.000001  -0.000000  -0.000000
     7  H    0.000000   0.000001  -0.000008  -0.000000  -0.000000
     8  C    0.000000   0.000192  -0.000347  -0.000002  -0.000004
     9  C   -0.000000  -0.000022   0.000073   0.000000   0.000000
    10  H    0.000000   0.000006  -0.000069   0.000000  -0.000000
    11  H    0.000000   0.000000  -0.000001  -0.000000   0.000000
    12  H    0.000000   0.000002  -0.000016  -0.000000   0.000000
    13  O    0.000000  -0.005611   0.018358   0.000058  -0.000009
    14  H   -0.000023   0.002615  -0.003051  -0.000018   0.000207
    15  C    0.000000  -0.000001  -0.000011   0.000000  -0.000000
    16  H    0.000000   0.000000  -0.000000   0.000000   0.000000
    17  H   -0.000000  -0.000000   0.000001   0.000000  -0.000000
    18  H    0.000000  -0.000015   0.000053  -0.000001   0.000003
    19  H   -0.000000   0.000001  -0.000001   0.000000   0.000000
    20  C    0.000007  -0.000140  -0.000000   0.000001   0.000002
    21  C   -0.000013   0.003901   0.000052  -0.000121   0.000178
    22  H   -0.000008   0.000000   0.000000   0.000000  -0.000001
    23  H   -0.000000   0.000001   0.000000  -0.000000   0.000000
    24  H   -0.000000  -0.000002  -0.000005  -0.000000  -0.000001
    25  H    0.000004  -0.000023   0.000006   0.000001   0.000002
    26  C   -0.000187  -0.030540  -0.003665   0.003883  -0.007988
    27  C    0.000038   0.373142  -0.031041  -0.024895  -0.034139
    28  H    0.000011  -0.005055   0.003476   0.000116  -0.000258
    29  H    0.000000  -0.033205  -0.004420  -0.003010   0.005429
[...]
 7290,0.01647659,0.00170072,-0.00134042,-0.00357358,0.07743851,-0.09284
 697,0.05811284,-0.01537524,0.01224171,-0.01245419,0.00969990,-0.005962
 10,0.00716083,-0.08755962,0.09538160,0.00000679,0.00000289,0.00000070,
 -0.00000288,0.00000093,0.00000399,0.00000531,-0.00000856,0.00000795,-0
 .00000115,0.00000127,0.00000189,-0.00000372,-0.00000817,0.00000079,0.0
 0001049,0.00000159,0.00000236,-0.00001151,0.00000382,-0.00000762,-0.00
 006882,0.00004211,-0.00009995,0.00001510,-0.00000367,-0.00000082,0.000
 02158,-0.00001319,0.00002008,0.00000277,-0.00000970,0.00000512,-0.0000
 0736,0.00000341,-0.00000095,0.00019212,-0.00014195,-0.00008354,-0.0002
 8230,0.00018788,0.00018891,-0.00000341,0.00000076,0.00000460,-0.000001
 14,0.00000145,0.00000197,0.00000020,-0.00000595,0.00000101,0.00000527,
 0.00000496,0.00000023,0.00000614,-0.00000750,-0.00000835,0.00003538,-0
 .00003111,-0.00001784,-0.00008747,0.00009433,0.00005239,-0.00003789,-0
 .00000097,-0.00001202,-0.00000489,0.00001529,0.00000447,0.00002421,0.0
 0002689,-0.00000029,0.00000696,-0.00000737,0.00001612,0.00002256,0.000
 37173,-0.00008893,0.00002900,-0.00009056,0.00002894,0.00006144,0.00006
 703,0.00001732,0.00000482,0.00002509,-0.00004161,-0.00000864,-0.000007
 64,0.00000612,0.00008450,-0.00003478,-0.00079965,0.01329389,-0.0082173
 5,0.01294918,0.00302090,-0.00123979,-0.00385139,-0.10595299,0.05821264
 ,-0.12050880,-0.00414660,0.00371926,-0.00502015,-0.01955135,0.01069443
 ,-0.01372481,0.11330594,-0.06364532,0.13092825,0.00004461,0.00001977,0
 .00003268,-0.00004060,0.00003646,0.00001364,0.00013390,-0.00016574,0.0
 0005815,-0.00000913,-0.00000689,-0.00000093,-0.00001698,-0.00008233,-0
 .00000961,0.00008687,0.00005474,0.00009030,-0.00000482,0.00002126,0.00
 002428,-0.00034857,0.00039926,-0.00025323,0.00020975,-0.00005131,0.000
 03360,0.00008317,-0.00006406,0.00005145,-0.00002607,-0.00009917,0.0000
 8932,-0.00002503,0.00002610,0.00004730,0.00077113,-0.00044450,0.000939
 37,-0.00005543,-0.00028224,-0.00111002,-0.00004685,0.00001007,0.000069
 36,-0.00003078,0.00001377,-0.00001028,0.00000372,-0.00008688,0.0000531
 7,0.00008913,0.00007051,-0.00006855,-0.00002716,-0.00002772,0.00010241
 ,0.00088802,0.00062158,-0.00037163,-0.00088713,-0.00009127,-0.00260645
 ,-0.00001757,-0.00004418,-0.00004967,-0.00006010,0.00010198,-0.0003753
 3,-0.00005536,-0.00032770,-0.00002886,0.00046117,0.00008221,-0.0001166
 9,0.00456043,0.00667699,0.00171628,-0.10587465,-0.03979328,0.01898747,
 0.00088245,0.00098051,-0.00085982,0.00306057,0.00406550,-0.00282800,-0
 .01556126,-0.02603102,0.01380889,-0.00043441,-0.00114340,-0.00039929,0
 .00148767,0.00063824,0.00056762,-0.00096730,0.00028468,0.00028075,-0.0
 0018796,-0.00002482,-0.00007010,0.00002430,-0.00006037,-0.00001814,-0.
 00000757,-0.00000583,-0.00000727,-0.00003154,-0.00001926,0.00002874,0.
 52762947,-0.00002184,-0.00000472,-0.00001517,0.00002356,-0.00003094,0.
 00000940,0.00000885,-0.00002748,0.00007289,0.00000754,-0.00000158,-0.0
 0000321,0.00000093,0.00002297,0.00001412,0.00001336,0.00001236,-0.0000
 0336,0.00000142,-0.00000278,-0.00002100,0.00019468,0.00026680,0.000056
 80,-0.00005321,0.00002195,-0.00004679,-0.00002556,-0.00000095,-0.00001
 219,-0.00000940,0.00002367,-0.00002234,0.00000650,0.00002347,0.0000220
 7,-0.00001548,-0.00008716,0.00002456,-0.00001684,0.00014235,0.00045857
 ,0.00001425,0.00000268,0.00003056,-0.00002853,0.00001144,-0.00001120,-
 0.00000011,-0.00000623,-0.00000291,-0.00001469,-0.00002811,-0.00004797
 ,-0.00001116,0.00000078,-0.00004821,-0.00022510,0.00051351,-0.00013796
 ,0.00030818,0.00027225,-0.00052483,0.00004491,-0.00008160,0.00003979,-
 0.00000021,0.00002953,-0.00013803,-0.00004935,0.00029836,-0.00008689,-
 0.00019356,-0.00008899,0.00002390,-0.00110851,-0.00338689,0.00910423,-
 0.03934302,-0.13259156,0.02726285,-0.00009965,0.00008003,-0.00048514,-
 0.01558348,-0.02179832,0.01288823,0.00203061,0.00392413,-0.00226826,-0
 .00004271,-0.00172812,-0.00075749,0.00119982,0.00121304,-0.00115074,-0
 .00060041,-0.00061125,0.00062667,-0.00016684,-0.00026648,-0.00003537,0
 .00001966,-0.00006752,-0.00003986,0.00001566,-0.00001278,0.00007444,0.
 00017400,-0.00006899,-0.00015255,-0.04493353,0.48644116,-0.00001399,-0
 .00001376,0.00000470,-0.00000556,0.00001210,-0.00004338,-0.00006885,0.
 00009765,-0.00005484,-0.00000168,-0.00000233,0.00000418,0.00002159,0.0
 0001175,0.00000887,-0.00003613,-0.00004928,-0.00002863,0.00000194,-0.0
 0000467,0.00000139,0.00023512,-0.00029336,0.00025559,-0.00003592,-0.00
 004724,-0.00000658,-0.00008436,0.00004253,-0.00003452,0.00001447,0.000
 04030,-0.00002084,0.00001971,0.00002895,0.00001816,-0.00128068,0.00074
 345,-0.00061479,0.00025272,0.00010327,0.00066005,-0.00003600,0.0000331
 5,-0.00006373,-0.00002034,0.00000023,0.00001156,0.00001816,-0.00002550
 ,0.00002707,0.00002507,-0.00003027,-0.00001508,-0.00005703,-0.00001828
 ,0.00004846,0.00105290,0.00168316,0.00006912,-0.00196118,-0.00123552,-
 0.00523831,0.00002211,-0.00007453,0.00007130,-0.00014032,0.00013666,-0
 .00067914,-0.00023508,0.00028056,0.00025264,0.00016204,-0.00007670,-0.
 00007815,0.01687248,0.02645424,-0.01825813,0.01959002,0.02777717,-0.08
 928927,0.00064086,-0.00008375,0.00137954,-0.00827294,-0.01108110,0.007
 03075,-0.00060491,-0.00167517,0.00069286,0.00033064,0.00131091,0.00121
 076,-0.00054390,0.00027921,-0.00050289,0.00041074,-0.00020915,-0.00049
 955,-0.00002971,0.00006216,0.00003533,-0.00000244,0.00000399,-0.000007
 07,0.00002424,-0.00002221,0.00002343,0.00010174,-0.00005007,-0.0000417
 5,0.02648445,0.03038603,0.53703380,0.00001055,0.00000473,0.00000627,0.
 00000390,0.00000902,0.00001454,0.00001390,-0.00003410,0.00000865,-0.00
 000410,0.00000124,-0.00000349,0.00000921,-0.00000910,-0.00000694,0.000
 00419,0.00000582,0.00000217,-0.00000183,-0.00000171,0.00000509,-0.0009
 8723,0.00020481,-0.00005857,0.00015631,-0.00004403,0.00011377,-0.00001
 322,0.00000884,-0.00004446,-0.00002236,-0.00005484,0.00003471,0.000003
 89,0.00000032,-0.00000204,-0.00149670,0.00049342,-0.00188828,0.0003108
 4,0.00006550,-0.00008283,0.00002361,-0.00000761,0.00004493,0.00000136,
 -0.00000096,-0.00000577,-0.00001062,0.00000277,-0.00001597,-0.00000415
 ,-0.00000831,-0.00000367,0.00000211,-0.00000966,0.00002659,0.00005137,
 -0.00001950,0.00000589,0.00020873,-0.00007288,0.00001351,-0.00000489,-
 0.00000066,0.00000564,-0.00000493,-0.00000318,0.00000517,-0.00001737,-
 0.00000073,-0.00000251,0.00012568,0.00011624,-0.00010697,0.00020806,0.
 00052081,-0.00067347,-0.01586676,0.00166470,-0.00008721,0.00034272,-0.
 00021015,0.00079569,0.00052294,-0.00024707,-0.00031233,0.00004938,-0.0
 0268073,0.00117666,0.00030318,0.00016725,0.00020046,-0.00086090,-0.000
 15510,0.00004508,0.00036535,-0.00000089,-0.00050296,0.00003679,-0.0000
 0477,0.00001695,0.00000189,0.00000693,0.00001151,0.00000626,-0.0000017
 6,-0.00000477,0.00001418,-0.00002399,-0.00001551,-0.29454716,0.0476552
 7,-0.01055941,0.32038724,-0.00000404,-0.00002300,0.00001504,-0.0000391
 2,0.00002545,-0.00008328,-0.00015072,0.00020042,-0.00013586,0.00001335
 ,-0.00000829,0.00001329,0.00002440,0.00002786,0.00001638,-0.00007416,-
 0.00009354,-0.00004887,0.00000291,-0.00000377,-0.00001107,0.00013271,-
 0.00083222,0.00007622,0.00001684,-0.00001026,0.00005658,0.00001024,0.0
 0001255,0.00003253,-0.00001727,-0.00000956,-0.00001995,0.00001193,-0.0
 0001004,-0.00001268,0.00054281,-0.00017451,0.00043591,-0.00026654,0.00
 075035,-0.00049828,0.00006594,-0.00001551,0.00004227,0.00000004,-0.000
 00239,-0.00000395,-0.00001528,0.00003083,-0.00004440,-0.00005202,-0.00
 002442,0.00001993,0.00001775,-0.00000604,0.00005192,0.00009976,0.00000
 065,-0.00003447,-0.00007490,-0.00005415,-0.00010809,0.00000424,0.00000
 331,0.00000376,-0.00000519,-0.00000473,-0.00000431,-0.00002141,-0.0000
 3455,-0.00001145,0.00019547,0.00003764,-0.00004666,-0.00036999,0.00090
 493,-0.00088385,-0.02697971,0.00426537,-0.00113782,0.00023048,-0.00006
 808,0.00064991,0.00007597,0.00081829,-0.00067887,-0.00303751,-0.003789
 88,0.00279957,0.00001277,0.00003811,-0.00026501,0.00055061,0.00000489,
 0.00008231,-0.00015480,-0.00010820,0.00035581,0.00001166,0.00002155,0.
 00001086,-0.00000522,0.00000385,-0.00001402,-0.00001399,0.00000535,-0.
 00000854,-0.00003752,0.00002829,0.00003151,0.04929975,-0.05695097,0.00
 123087,-0.04955261,0.06114077,0.00003537,0.00002574,0.00000436,-0.0000
 2894,0.00001085,0.00004082,0.00015585,-0.00019868,0.00012679,0.0000268
 6,-0.00001780,-0.00000506,-0.00003401,-0.00004015,0.00001665,0.0000893
 4,0.00008385,0.00008415,-0.00000169,0.00002074,-0.00001404,-0.00108230
 ,0.00085038,-0.00059695,0.00019358,-0.00003475,0.00007621,0.00014394,-
 0.00009423,0.00005991,-0.00002326,-0.00009186,0.00008745,-0.00002072,0
 .00000639,-0.00002025,0.00036583,-0.00075704,-0.00071104,-0.00093083,0
 .00013412,-0.00183428,-0.00002014,0.00001432,0.00003199,0.00002355,-0.
 00001748,0.00000099,-0.00000833,-0.00004879,0.00001418,0.00002582,0.00
 005077,0.00000262,-0.00002415,0.00001918,-0.00004042,-0.00004311,-0.00
 001412,0.00000807,-0.00003700,0.00010237,-0.00003232,-0.00000105,0.000
 00379,-0.00000727,-0.00000644,-0.00000684,0.00000888,0.00000960,-0.000
 03109,0.00001008,-0.00016808,-0.00005107,0.00000396,0.00154179,-0.0005
 6311,0.00098944,0.01375606,-0.00267696,-0.00030245,-0.00010533,0.00030
 721,-0.00066754,-0.00071265,-0.00017679,0.00029825,0.00152873,0.002407
 85,-0.00041587,-0.00062706,-0.00013885,-0.00059014,0.00130029,0.000169
 98,0.00011905,-0.00075739,0.00004506,0.00049969,-0.00007590,0.00000730
 ,-0.00000472,-0.00000094,-0.00000922,-0.00001113,-0.00001384,0.0000113
 2,0.00000491,-0.00004829,0.00004861,0.00002960,-0.01285179,0.00136825,
 -0.04930742,0.01254252,-0.00417384,0.05143606,-0.00001782,-0.00001037,
 -0.00000587,0.00002282,-0.00001045,-0.00001036,-0.00006306,0.00008355,
 -0.00005583,-0.00001417,0.00001036,0.00000120,0.00002730,0.00003080,-0
 .00000791,-0.00004680,-0.00003205,-0.00003823,0.00000005,-0.00000850,0
 .00000862,0.00030874,-0.00029698,0.00024903,-0.00008750,0.00001316,-0.
 00002352,-0.00007536,0.00005382,-0.00003054,0.00001000,0.00004523,-0.0
 0003921,0.00000873,-0.00000947,-0.00000217,-0.00089508,0.00053203,-0.0
 0066879,0.00028100,0.00001012,0.00071349,0.00001865,-0.00001415,-0.000
 01780,-0.00000296,0.00000595,0.,0.00000094,0.00003344,-0.00001321,-0.0
 0001968,-0.00003840,0.00001610,0.00001426,-0.00000049,-0.00000535,-0.0
 0023929,-0.00033405,0.00003527,0.00057242,0.00009033,0.00101310,-0.000
 00299,0.00001359,-0.00000230,0.00002431,-0.00003668,0.00015149,0.00002
 135,0.00000758,-0.00004144,-0.00001381,0.00006735,-0.00002359,-0.00191
 035,-0.00280568,0.00069146,0.00402702,-0.00179100,0.01799363,0.0001013
 1,-0.00015092,0.00017448,0.00044719,0.00051717,-0.00053258,0.00047791,
 0.00066106,0.00012939,0.00037927,0.00001692,0.00003810,-0.00105320,-0.
 00024124,-0.00026268,0.00060587,-0.00002541,-0.00035977,0.00007052,0.0
 0000062,0.00004538,-0.00000799,0.00001832,0.00001288,0.00000914,0.0000
 0003,-0.00000156,0.00002303,-0.00001962,-0.00001107,-0.06435882,0.0088
 3891,-0.06536594,-0.00574836,0.00268082,-0.03083076,0.06614780,0.00000
 350,0.00000418,-0.00000349,0.00000246,0.00000178,0.00001718,0.00002213
 ,-0.00001926,-0.00000387,-0.00000049,0.00000127,-0.00000210,-0.0000011
 0,-0.00000176,-0.00000739,0.00000217,0.00001013,0.00000521,0.00000081,
 -0.00000175,0.00000635,-0.00003214,0.00004138,0.00002092,-0.00001258,0
 .00000961,-0.00000108,0.00001151,0.00000052,-0.00000787,0.00001055,-0.
 00000037,0.00000284,-0.00000216,-0.00002146,-0.00001735,0.00020458,0.0
 0001947,0.00000694,0.00002028,-0.00021497,-0.00000580,-0.00001051,-0.0
 0000160,-0.00002467,0.00002836,-0.00000923,0.00000602,-0.00000175,0.00
 001795,-0.00000796,-0.00001358,0.00001558,0.00003776,0.00002723,0.0000
 0476,-0.00000492,-0.00033622,-0.00048874,0.00000343,0.00049378,0.00043
 703,0.00152275,-0.00001071,0.00003758,0.00003141,0.00003666,-0.0000334
 4,0.00023624,0.00007294,0.00002512,-0.00004921,-0.00007540,-0.00000392
 ,0.00000257,-0.00337841,-0.00497806,0.00018971,0.00755142,-0.00349632,
 0.02485135,-0.00015177,0.00001458,-0.00035300,0.00075331,0.00041423,-0
 .00020767,-0.00003711,0.00090628,-0.00050678,0.00022610,0.00103651,-0.
 00020973,-0.00078679,-0.00028082,0.00036342,0.00041586,0.00021706,-0.0
 0032568,0.00007110,0.00007240,0.00006387,-0.00001018,0.00002513,0.0000
 1988,0.00000310,-0.00000337,-0.00002090,-0.00003093,0.00000367,0.00003
 297,0.00871534,-0.04868370,0.02807731,0.00132133,-0.00159560,0.0060845
 8,-0.00678261,0.05213439,-0.00001007,-0.00001158,-0.00000232,0.0000074
 6,0.00000057,-0.00001033,0.00000737,0.00000477,-0.00002901,-0.00001672
 ,0.00000760,0.00000695,0.00001938,0.00001320,-0.00000989,-0.00002310,-
 0.00000506,-0.00000737,0.00000187,0.00000292,0.00002522,0.00018154,-0.
 00007915,0.00010652,0.00001423,-0.00001651,-0.00003396,-0.00004141,0.0
 0002277,0.00000066,-0.00001952,0.00001629,-0.00001383,-0.00000441,0.00
 001206,0.00003883,-0.00030763,0.00007749,-0.00004038,0.00026255,-0.000
 05216,0.00003621,0.00000874,-0.00000946,0.00002741,-0.00003286,0.00001
 635,-0.00000005,0.00000595,-0.00001075,0.00000287,0.00000564,-0.000018
 69,-0.00004070,-0.00002150,-0.00001439,-0.00000114,0.00024770,0.000318
 44,0.00001220,-0.00043177,-0.00046506,-0.00073729,-0.00001132,-0.00002
 889,0.00001219,-0.00003222,0.00004246,-0.00014783,-0.00001947,0.000020
 58,0.00003170,0.00007338,0.00002298,-0.00002842,0.00205971,0.00206213,
 0.00074531,-0.00326800,0.00067945,-0.01090298,0.00009898,-0.00013151,0
 .00028282,-0.00011454,0.00041360,0.00053825,0.00059448,-0.00018464,0.0
 0015210,-0.00023033,0.00009557,-0.00000156,0.00014025,0.00047946,0.000
 72248,-0.00014435,-0.00004968,-0.00028689,0.00001693,-0.00001858,-0.00
 003995,0.00000052,-0.00002157,-0.00001321,0.00000051,-0.00001588,-0.00
 001619,-0.00001163,0.00000042,0.00001343,-0.06449801,0.02860686,-0.277
 70864,-0.00042874,-0.00035296,0.00009358,0.07012467,-0.03316632,0.3015
 2929,-0.00000579,-0.00000816,-0.00000052,-0.00002342,0.00000622,-0.000
 04016,-0.00004064,0.00005848,-0.00001449,0.00002282,-0.00001135,0.0000
 0612,-0.00000172,0.00001473,0.00002900,-0.00001265,-0.00002916,-0.0000
 1324,0.00000239,-0.00000310,-0.00002195,0.00008649,-0.00014280,-0.0000
 4130,-0.00002966,0.00000298,0.00000947,0.00002162,-0.00001257,0.000010
 42,0.00000201,0.00000632,-0.00001493,0.00000717,-0.00000180,-0.0000162
 7,-0.00025914,-0.00002800,-0.00020042,-0.00017730,0.00032733,-0.000080
 59,0.00002420,-0.00000174,0.00000911,0.00000775,-0.00000840,0.00000102
 ,-0.00000680,0.00000945,-0.00001848,-0.00002759,-0.00001780,0.00001356
 ,-0.00000070,0.00000438,0.00000744,-0.00001267,0.00007989,0.00002743,-
 0.00002522,-0.00001845,-0.00011738,0.00001508,-0.00000708,0.00003064,-
 0.00000846,-0.00000393,-0.00000967,-0.00002711,0.00009674,-0.00000981,
 -0.00001701,-0.00001828,-0.00001397,0.00044092,0.00037329,-0.00041709,
 0.00319495,-0.01535869,-0.00926280,-0.00002692,0.00006636,0.00011377,-
 0.00105313,-0.00308900,0.00190496,0.00047527,0.00025239,-0.00074883,-0
 .00055134,-0.00017663,-0.00011766,0.00169122,0.00051793,0.00002331,-0.
 00080285,-0.00032356,0.00062603,0.00000701,-0.00004352,-0.00004653,-0.
 00001877,-0.00000176,-0.00004301,-0.00002263,-0.00000196,0.00000189,-0
 .00003292,0.00007839,0.00001461,-0.05679410,0.04198508,0.02307536,-0.0
 0357309,0.02687155,0.01671491,0.00095764,-0.00832010,-0.00420424,0.056
 59509,0.00000764,0.00000717,-0.00000016,0.00001347,0.00000693,0.000026
 12,0.00004519,-0.00003820,-0.00003184,-0.00001853,0.00000648,0.0000015
 3,0.00000288,-0.00000743,-0.00002199,-0.00000459,0.00001853,0.00000729
 ,0.00000271,0.00000612,0.00003380,-0.00002655,0.00001248,0.00005576,0.
 00003491,-0.00003494,-0.00002507,-0.00002496,0.00001782,-0.00000484,0.
 00000679,0.00001659,0.00001738,-0.00001307,-0.00000625,0.00002172,0.00
 010398,0.00012287,0.00014262,0.00026513,-0.00032839,-0.00010604,-0.000
 05445,0.00002881,-0.00005850,0.00000613,0.00000610,0.00001103,0.000009
 18,0.00000372,0.00001124,0.00000842,-0.00000818,0.00000941,0.00001162,
 -0.00000930,0.00001656,-0.00002504,0.00002300,-0.00003678,0.00000135,-
 0.00001884,0.00016885,-0.00002226,0.00002191,0.00013159,-0.00000716,0.
 00002084,0.00004155,-0.00000641,0.00028516,0.00002370,0.00001948,-0.00
 000529,-0.00005016,0.00039903,-0.00180256,-0.00243343,0.00475605,-0.02
 192762,-0.01082977,-0.00000739,-0.00002612,0.00017605,-0.00319009,-0.0
 0264666,0.00266267,-0.00034692,0.00071734,-0.00003501,-0.00012167,0.00
 174487,-0.00028318,-0.00016957,0.00056965,0.00139547,-0.00000959,0.000
 17708,-0.00061964,0.00012540,0.00009100,0.00006969,-0.00001896,0.00002
 052,0.00001088,-0.00000154,-0.00001627,-0.00003201,-0.00006600,0.00002
 502,0.00008387,0.04166678,-0.22677336,-0.10380276,0.00089536,-0.004500
 73,-0.00262998,-0.00112309,0.00438376,0.00173686,-0.04312367,0.2498163
 8,0.00000608,0.00000752,0.00000297,0.00001139,-0.00000842,0.00001458,-
 0.00001423,0.00000052,0.00001928,-0.00000070,0.00000274,-0.00000589,-0
 .00000740,-0.00000991,-0.00000396,0.00001202,0.00000444,-0.00000176,-0
 .00000165,-0.00000307,-0.00001072,-0.00005841,0.00001418,-0.00006130,-
 0.00001278,0.00001300,0.00002043,0.00001285,-0.00000716,0.00000187,0.0
 0000857,-0.00000916,0.00000341,0.00000405,-0.00000043,-0.00001548,0.00
 015262,-0.00003532,0.00001418,-0.00015676,0.00001912,0.00002807,0.0000
 0666,-0.00000136,-0.00000409,0.00000279,-0.00000270,-0.00000409,-0.000
 00234,0.00000200,0.00000225,0.00000769,0.00000459,0.00000728,-0.000000
 26,0.00000502,-0.00000249,-0.00002992,-0.00011971,-0.00004664,0.000089
 91,0.00002555,0.00011510,0.00000421,0.00003162,-0.00004372,0.00000239,
 -0.00002141,0.00003545,-0.00000012,-0.00011713,-0.00000240,-0.00002479
 ,-0.00001005,0.00002513,-0.00048160,0.00063942,0.00050965,-0.00334305,
 0.01202802,0.00720885,-0.00002618,-0.00002800,-0.00005102,0.00141138,0
 .00274894,-0.00070048,-0.00036858,-0.00071344,0.00034473,0.00035881,0.
 00057653,-0.00062565,-0.00051469,-0.00029124,-0.00180648,0.00036844,0.
 00007778,0.00006441,0.00003551,0.00004083,0.00006084,0.00000331,0.0000
 2760,0.00003063,-0.00000489,0.00002610,0.00001684,-0.00002134,-0.00000
 038,0.00002305,0.02305442,-0.10505878,-0.10634687,-0.00026991,0.002653
 57,0.00051322,0.00695219,-0.02665692,-0.01430610,-0.02716568,0.1141455
 1,0.11497692\\0.00035379,0.00063093,0.00056800,-0.00033979,-0.00034974
 ,0.00016551,-0.00014949,-0.00002411,-0.00043139,0.00062410,-0.00044620
 ,-0.00046243,-0.00048607,0.00040528,-0.00046513,0.00054261,-0.00029036
 ,0.00043758,-0.00042094,0.00043112,0.00043657,0.00023883,-0.00015398,0
 .00020721,-0.00012099,0.00007706,-0.00045923,-0.00006942,0.00001921,-0
 .00039289,0.00055158,-0.00032100,0.00050519,-0.00054033,0.00017846,0.0
 0037678,0.00176635,-0.00158761,-0.00185324,-0.00155964,0.00144711,0.00
 136561,0.00028720,0.00050242,0.00012031,0.00070380,-0.00045430,-0.0003
 7054,-0.00043530,-0.00050017,0.00065326,-0.00058483,0.00018035,-0.0005
 2864,0.00090331,-0.00007366,0.00009485,-0.00015809,0.00024224,-0.00044
 960,0.00021762,0.00024073,0.00014977,-0.00027602,0.00059381,0.00048084
 ,-0.00045548,-0.00075203,0.00022210,0.00023624,-0.00061465,-0.00033341
 ,-0.00072523,0.00006748,0.00000316,-0.00001274,0.00027254,0.00015809,0
 .00013629,0.00018577,0.00027291,0.00002985,0.00008686,0.00010041,0.000
 22946,-0.00058962,-0.00041158,-0.00066509,0.00020505,-0.00012044,0.000
 23197,-0.00010895,-0.00003543,0.00025642,-0.00027898,-0.00032907,-0.00
 008749,0.00013575,0.00012069,0.00022099,-0.00054053,-0.00033117,0.0004
 8596,0.00065080,0.00029156,-0.00040753,-0.00025851,0.00079948,-0.00063
 388,0.00049475,-0.00042169,-0.00021666,-0.00035846,0.00034264,0.000775
 57,-0.00014803,0.00001947,-0.00027349,0.00001868,-0.00092512,-0.000173
 47,0.00078448,0.00042895\\\@


 THE NUMBERS ARE MEANINGLESS, BUT THE TRENDS ARE IMPORTANT.
     -- LARRY BURGGRAF
 Job cpu time:       0 days  1 hours 15 minutes 45.1 seconds.
 Elapsed time:       0 days  0 hours  9 minutes 34.2 seconds.
 File lengths (MBytes):  RWF=    370 Int=      0 D2E=      0 Chk=      7 Scr=      1
 Normal termination of Gaussian 16 at Sat Jan 21 11:12:38 2023.
