 Entering Gaussian System, Link 0=/dragofs/sw/campus/0.2/software/gaussian/16.gaussian/gaussian/g16_legacy/g16
 Input=C12H26O3_pair_003_098_allign_FREQ_g16.com
 Output=C12H26O3_pair_003_098_allign_FREQ_g16.log
 Initial command:
 /dragofs/sw/campus/0.2/software/gaussian/16.gaussian/gaussian/g16_legacy/l1.exe "/tmp/jramos/37683/Gau-2964431.inp" -scrdir="/tmp/jramos/37683/"
 Entering Link 1 = /dragofs/sw/campus/0.2/software/gaussian/16.gaussian/gaussian/g16_legacy/l1.exe PID=   2964433.
  
 Copyright (c) 1988,1990,1992,1993,1995,1998,2003,2009,2016,
            Gaussian, Inc.  All Rights Reserved.
  
 This is part of the Gaussian(R) 16 program.  It is based on
 the Gaussian(R) 09 system (copyright 2009, Gaussian, Inc.),
 the Gaussian(R) 03 system (copyright 2003, Gaussian, Inc.),
 the Gaussian(R) 98 system (copyright 1998, Gaussian, Inc.),
 the Gaussian(R) 94 system (copyright 1995, Gaussian, Inc.),
 the Gaussian 92(TM) system (copyright 1992, Gaussian, Inc.),
 the Gaussian 90(TM) system (copyright 1990, Gaussian, Inc.),
 the Gaussian 88(TM) system (copyright 1988, Gaussian, Inc.),
 the Gaussian 86(TM) system (copyright 1986, Carnegie Mellon
 University), and the Gaussian 82(TM) system (copyright 1983,
 Carnegie Mellon University). Gaussian is a federally registered
 trademark of Gaussian, Inc.
  
 This software contains proprietary and confidential information,
 including trade secrets, belonging to Gaussian, Inc.
  
 This software is provided under written license and may be
 used, copied, transmitted, or stored only in accord with that
 written license.
  
 The following legend is applicable only to US Government
 contracts under FAR:
  
                    RESTRICTED RIGHTS LEGEND
  
 Use, reproduction and disclosure by the US Government is
 subject to restrictions as set forth in subparagraphs (a)
 and (c) of the Commercial Computer Software - Restricted
 Rights clause in FAR 52.227-19.
  
 Gaussian, Inc.
 340 Quinnipiac St., Bldg. 40, Wallingford CT 06492
  
  
 ---------------------------------------------------------------
 Warning -- This program may not be used in any manner that
 competes with the business of Gaussian, Inc. or will provide
 assistance to any competitor of Gaussian, Inc.  The licensee
 of this program is prohibited from giving any competitor of
 Gaussian, Inc. access to this program.  By using this program,
 the user acknowledges that Gaussian, Inc. is engaged in the
 business of creating and licensing software in the field of
 computational chemistry and represents and warrants to the
 licensee that it is not a competitor of Gaussian, Inc. and that
 it will not use this program in any manner prohibited above.
 ---------------------------------------------------------------
  

 Cite this work as:
 Gaussian 16, Revision A.03,
 M. J. Frisch, G. W. Trucks, H. B. Schlegel, G. E. Scuseria, 
 M. A. Robb, J. R. Cheeseman, G. Scalmani, V. Barone, 
 G. A. Petersson, H. Nakatsuji, X. Li, M. Caricato, A. V. Marenich, 
 J. Bloino, B. G. Janesko, R. Gomperts, B. Mennucci, H. P. Hratchian, 
 J. V. Ortiz, A. F. Izmaylov, J. L. Sonnenberg, D. Williams-Young, 
 F. Ding, F. Lipparini, F. Egidi, J. Goings, B. Peng, A. Petrone, 
 T. Henderson, D. Ranasinghe, V. G. Zakrzewski, J. Gao, N. Rega, 
 G. Zheng, W. Liang, M. Hada, M. Ehara, K. Toyota, R. Fukuda, 
 J. Hasegawa, M. Ishida, T. Nakajima, Y. Honda, O. Kitao, H. Nakai, 
 T. Vreven, K. Throssell, J. A. Montgomery, Jr., J. E. Peralta, 
 F. Ogliaro, M. J. Bearpark, J. J. Heyd, E. N. Brothers, K. N. Kudin, 
 V. N. Staroverov, T. A. Keith, R. Kobayashi, J. Normand, 
 K. Raghavachari, A. P. Rendell, J. C. Burant, S. S. Iyengar, 
 J. Tomasi, M. Cossi, J. M. Millam, M. Klene, C. Adamo, R. Cammi, 
 J. W. Ochterski, R. L. Martin, K. Morokuma, O. Farkas, 
 J. B. Foresman, and D. J. Fox, Gaussian, Inc., Wallingford CT, 2016.
 
 ******************************************
 Gaussian 16:  EM64L-G16RevA.03 25-Dec-2016
                21-Jan-2023 
 ******************************************
 %chk=C12H26O3_pair_003_098_allign_FREQ_gaussian.chk
 %nproc=8
 Will use up to    8 processors via shared memory.
 %mem=1000Mb
 -------------------------------------------------------
 #p BLYP/6-31G* EmpiricalDispersion=GD3 freq scale=0.992
 -------------------------------------------------------
 1/10=4,30=1,38=1,114=992000/1,3;
 2/12=2,17=6,18=5,40=1/2;
 3/5=1,6=6,7=1,11=2,25=1,30=1,71=2,74=402,124=31,140=1/1,2,3;
 4//1;
 5/5=2,38=5,98=1/2;
 8/6=4,10=90,11=11/1;
 11/6=1,8=1,9=11,15=111,16=1/1,2,10;
 10/6=1/2;
 6/7=2,8=2,9=2,10=2,28=1/1;
 7/8=1,10=1,25=1/1,2,3,16;
 1/10=4,30=1/3;
 99//99;
 Leave Link    1 at Sat Jan 21 11:03:04 2023, MaxMem=   131072000 cpu:               0.2 elap:               0.0
 (Enter /dragofs/sw/campus/0.2/software/gaussian/16.gaussian/gaussian/g16_legacy/l101.exe)
 --------------------------------------------
 Conformer name C12H26O3_pair_003_098_allign.
 --------------------------------------------
 Symbolic Z-matrix:
 Charge =  0 Multiplicity = 1
 H                    -3.2827   -2.0297    0.9679 
 C                    -4.0192   -1.5959    0.2753 
 C                    -3.3379   -0.5679   -0.6497 
 H                    -4.4836   -2.4122   -0.3005 
 H                    -4.8066   -1.1199    0.8842 
 H                    -4.0829   -0.1047   -1.3221 
 H                    -2.6003   -1.0763   -1.2974 
 C                    -2.6047    0.5492    0.1306 
 C                    -1.9478    1.5907   -0.8091 
 H                    -3.3329    1.0674    0.784 
 H                    -2.6985    1.9505   -1.5361 
 H                    -1.1682    1.0696   -1.3945 
 O                    -1.6268   -0.0103    1.042 
 H                    -1.0499   -0.5915    0.4937 
 C                    -1.3396    2.7862   -0.0481 
 H                    -0.7859    3.4607   -0.721 
 H                    -0.6518    2.4351    0.7359 
 H                    -2.1271    3.3785    0.4477 
 H                     1.0228    2.0317   -1.7487 
 C                     2.106     1.9062   -1.5952 
 C                     2.434     1.7008   -0.1025 
 H                     2.4345    1.0398   -2.1898 
 H                     2.6105    2.8007   -1.9924 
 H                     2.1123    2.5835    0.4771 
 H                     3.5248    1.6044    0.0405 
 C                     1.7382    0.4758    0.5121 
 C                     2.0655    0.2408    1.9955 
 H                     0.6518    0.5474    0.3794 
 H                     1.8385    1.1783    2.5332 
 H                     3.1528    0.073     2.0941 
 O                     2.2203   -0.7103   -0.2525 
 C                     1.3209   -1.551    -0.8216 
 O                     0.0945   -1.4705   -0.723 
 C                     2.0348   -2.6225   -1.6318 
 H                     2.5085   -2.1611   -2.5128 
 H                     2.8333   -3.0853   -1.0337 
 H                     1.3115   -3.3792   -1.9575 
 C                     1.2732   -0.9238    2.6248 
 H                     1.4749   -1.8687    2.0956 
 H                     0.1912   -0.7294    2.5795 
 H                     1.5568   -1.0654    3.6796 
 
 ITRead=  0  0  0  0  0  0  0  0  0  0  0  0  0  0  0  0  0  0  0  0
 ITRead=  0  0  0  0  0  0  0  0  0  0  0  0  0  0  0  0  0  0  0  0
 ITRead=  0
 MicOpt= -1 -1 -1 -1 -1 -1 -1 -1 -1 -1 -1 -1 -1 -1 -1 -1 -1 -1 -1 -1
 MicOpt= -1 -1 -1 -1 -1 -1 -1 -1 -1 -1 -1 -1 -1 -1 -1 -1 -1 -1 -1 -1
 MicOpt= -1
 NAtoms=     41 NQM=       41 NQMF=       0 NMMI=      0 NMMIF=      0
                NMic=       0 NMicF=      0.
                    Isotopes and Nuclear Properties:
 (Nuclear quadrupole moments (NQMom) in fm**2, nuclear magnetic moments (NMagM)
  in nuclear magnetons)

  Atom         1           2           3           4           5           6           7           8           9          10
 IAtWgt=           1          12          12           1           1           1           1          12          12           1
 AtmWgt=   1.0078250  12.0000000  12.0000000   1.0078250   1.0078250   1.0078250   1.0078250  12.0000000  12.0000000   1.0078250
 NucSpn=           1           0           0           1           1           1           1           0           0           1
 AtZEff=  -0.0000000  -0.0000000  -0.0000000  -0.0000000  -0.0000000  -0.0000000  -0.0000000  -0.0000000  -0.0000000  -0.0000000
 NQMom=    0.0000000   0.0000000   0.0000000   0.0000000   0.0000000   0.0000000   0.0000000   0.0000000   0.0000000   0.0000000
 NMagM=    2.7928460   0.0000000   0.0000000   2.7928460   2.7928460   2.7928460   2.7928460   0.0000000   0.0000000   2.7928460
 AtZNuc=   1.0000000   6.0000000   6.0000000   1.0000000   1.0000000   1.0000000   1.0000000   6.0000000   6.0000000   1.0000000

  Atom        11          12          13          14          15          16          17          18          19          20
 IAtWgt=           1           1          16           1          12           1           1           1           1          12
 AtmWgt=   1.0078250   1.0078250  15.9949146   1.0078250  12.0000000   1.0078250   1.0078250   1.0078250   1.0078250  12.0000000
 NucSpn=           1           1           0           1           0           1           1           1           1           0
 AtZEff=  -0.0000000  -0.0000000  -0.0000000  -0.0000000  -0.0000000  -0.0000000  -0.0000000  -0.0000000  -0.0000000  -0.0000000
 NQMom=    0.0000000   0.0000000   0.0000000   0.0000000   0.0000000   0.0000000   0.0000000   0.0000000   0.0000000   0.0000000
 NMagM=    2.7928460   2.7928460   0.0000000   2.7928460   0.0000000   2.7928460   2.7928460   2.7928460   2.7928460   0.0000000
 AtZNuc=   1.0000000   1.0000000   8.0000000   1.0000000   6.0000000   1.0000000   1.0000000   1.0000000   1.0000000   6.0000000

  Atom        21          22          23          24          25          26          27          28          29          30
 IAtWgt=          12           1           1           1           1          12          12           1           1           1
 AtmWgt=  12.0000000   1.0078250   1.0078250   1.0078250   1.0078250  12.0000000  12.0000000   1.0078250   1.0078250   1.0078250
 NucSpn=           0           1           1           1           1           0           0           1           1           1
 AtZEff=  -0.0000000  -0.0000000  -0.0000000  -0.0000000  -0.0000000  -0.0000000  -0.0000000  -0.0000000  -0.0000000  -0.0000000
 NQMom=    0.0000000   0.0000000   0.0000000   0.0000000   0.0000000   0.0000000   0.0000000   0.0000000   0.0000000   0.0000000
 NMagM=    0.0000000   2.7928460   2.7928460   2.7928460   2.7928460   0.0000000   0.0000000   2.7928460   2.7928460   2.7928460
 AtZNuc=   6.0000000   1.0000000   1.0000000   1.0000000   1.0000000   6.0000000   6.0000000   1.0000000   1.0000000   1.0000000

  Atom        31          32          33          34          35          36          37          38          39          40
 IAtWgt=          16          12          16          12           1           1           1          12           1           1
 AtmWgt=  15.9949146  12.0000000  15.9949146  12.0000000   1.0078250   1.0078250   1.0078250  12.0000000   1.0078250   1.0078250
 NucSpn=           0           0           0           0           1           1           1           0           1           1
 AtZEff=  -0.0000000  -0.0000000  -0.0000000  -0.0000000  -0.0000000  -0.0000000  -0.0000000  -0.0000000  -0.0000000  -0.0000000
 NQMom=    0.0000000   0.0000000   0.0000000   0.0000000   0.0000000   0.0000000   0.0000000   0.0000000   0.0000000   0.0000000
 NMagM=    0.0000000   0.0000000   0.0000000   0.0000000   2.7928460   2.7928460   2.7928460   0.0000000   2.7928460   2.7928460
 AtZNuc=   8.0000000   6.0000000   8.0000000   6.0000000   1.0000000   1.0000000   1.0000000   6.0000000   1.0000000   1.0000000

  Atom        41
 IAtWgt=           1
 AtmWgt=   1.0078250
 NucSpn=           1
 AtZEff=  -0.0000000
 NQMom=    0.0000000
 NMagM=    2.7928460
 AtZNuc=   1.0000000
 Leave Link  101 at Sat Jan 21 11:03:04 2023, MaxMem=   131072000 cpu:               0.7 elap:               0.1
 (Enter /dragofs/sw/campus/0.2/software/gaussian/16.gaussian/gaussian/g16_legacy/l103.exe)

 GradGradGradGradGradGradGradGradGradGradGradGradGradGradGradGradGradGrad
 Berny optimization.
 Initialization pass.
 Trust Radius=3.00D-01 FncErr=1.00D-07 GrdErr=1.00D-07 EigMax=2.50D+02 EigMin=1.00D-04
 Number of steps in this run=      2 maximum allowed number of steps=      2.
 GradGradGradGradGradGradGradGradGradGradGradGradGradGradGradGradGradGrad

 Leave Link  103 at Sat Jan 21 11:03:04 2023, MaxMem=   131072000 cpu:               0.1 elap:               0.0
 (Enter /dragofs/sw/campus/0.2/software/gaussian/16.gaussian/gaussian/g16_legacy/l202.exe)
                          Input orientation:                          
 ---------------------------------------------------------------------
 Center     Atomic      Atomic             Coordinates (Angstroms)
 Number     Number       Type             X           Y           Z
 ---------------------------------------------------------------------
      1          1           0       -3.282700   -2.029700    0.967900
      2          6           0       -4.019200   -1.595900    0.275300
      3          6           0       -3.337900   -0.567900   -0.649700
      4          1           0       -4.483600   -2.412200   -0.300500
      5          1           0       -4.806600   -1.119900    0.884200
      6          1           0       -4.082900   -0.104700   -1.322100
      7          1           0       -2.600300   -1.076300   -1.297400
      8          6           0       -2.604700    0.549200    0.130600
      9          6           0       -1.947800    1.590700   -0.809100
     10          1           0       -3.332900    1.067400    0.784000
     11          1           0       -2.698500    1.950500   -1.536100
     12          1           0       -1.168200    1.069600   -1.394500
     13          8           0       -1.626800   -0.010300    1.042000
     14          1           0       -1.049900   -0.591500    0.493700
     15          6           0       -1.339600    2.786200   -0.048100
     16          1           0       -0.785900    3.460700   -0.721000
     17          1           0       -0.651800    2.435100    0.735900
     18          1           0       -2.127100    3.378500    0.447700
     19          1           0        1.022800    2.031700   -1.748700
     20          6           0        2.106000    1.906200   -1.595200
     21          6           0        2.434000    1.700800   -0.102500
     22          1           0        2.434500    1.039800   -2.189800
     23          1           0        2.610500    2.800700   -1.992400
     24          1           0        2.112300    2.583500    0.477100
     25          1           0        3.524800    1.604400    0.040500
     26          6           0        1.738200    0.475800    0.512100
     27          6           0        2.065500    0.240800    1.995500
     28          1           0        0.651800    0.547400    0.379400
     29          1           0        1.838500    1.178300    2.533200
     30          1           0        3.152800    0.073000    2.094100
     31          8           0        2.220300   -0.710300   -0.252500
     32          6           0        1.320900   -1.551000   -0.821600
     33          8           0        0.094500   -1.470500   -0.723000
     34          6           0        2.034800   -2.622500   -1.631800
     35          1           0        2.508500   -2.161100   -2.512800
     36          1           0        2.833300   -3.085300   -1.033700
     37          1           0        1.311500   -3.379200   -1.957500
     38          6           0        1.273200   -0.923800    2.624800
     39          1           0        1.474900   -1.868700    2.095600
     40          1           0        0.191200   -0.729400    2.579500
     41          1           0        1.556800   -1.065400    3.679600
 ---------------------------------------------------------------------
                    Distance matrix (angstroms):
                    1          2          3          4          5
     1  H    0.000000
     2  C    1.100141   0.000000
     3  C    2.180948   1.541616   0.000000
     4  H    1.788101   1.101616   2.199093   0.000000
     5  H    1.776799   1.103329   2.194227   1.782662   0.000000
     6  H    3.096780   2.186189   1.105306   2.555148   2.534193
     7  H    2.550730   2.180974   1.105459   2.515006   3.103069
     8  C    2.794903   2.573558   1.547373   3.533554   2.863943
     9  C    4.248174   3.952346   2.572419   4.765728   4.288048
    10  H    3.102961   2.796954   2.174794   3.822024   2.639340
    11  H    4.738491   4.195518   2.745337   4.873032   4.441767
    12  H    4.433701   4.245153   2.818463   4.930684   4.819164
    13  O    2.612560   2.970780   2.469945   3.966451   3.371534
    14  H    2.697903   3.142174   2.557902   3.966862   3.813724
    15  C    5.291577   5.146615   3.950331   6.080444   5.305364
    16  H    6.263456   6.084081   4.769424   6.952752   6.302745
    17  H    5.187475   5.272618   4.260637   6.265232   5.470135
    18  H    5.554696   5.324887   4.271346   6.296436   5.254127
    19  H    6.512466   6.532826   5.194365   7.222601   7.130684
    20  C    7.148348   7.299421   6.054022   7.984213   7.942842
    21  C    6.909634   7.256360   6.225854   8.050414   7.833021
    22  H    7.216597   7.394179   6.186858   7.959012   8.157653
    23  H    8.174714   8.271969   6.966618   8.964547   8.869008
    24  H    7.115372   7.423166   6.395755   8.310691   7.858249
    25  H    7.772310   8.198109   7.231315   8.965703   8.806013
    26  C    5.629806   6.123371   5.310921   6.907363   6.746786
    27  C    5.900371   6.584537   6.070240   7.429720   7.093113
    28  H    4.740049   5.140313   4.268565   5.966056   5.729646
    29  H    6.242445   6.863450   6.322593   7.803236   7.222069
    30  H    6.863333   7.584909   7.075901   8.380032   8.138729
    31  O    5.789059   6.324098   5.574193   6.916722   7.130020
    32  C    4.962318   5.451777   4.764499   5.891132   6.375097
    33  O    3.818027   4.234956   3.549849   4.693006   5.169796
    34  C    5.948585   6.429763   5.835393   6.656285   7.442635
    35  H    6.757998   7.120661   6.339544   7.338037   8.132306
    36  H    6.521208   7.133621   6.675962   7.384285   8.118449
    37  H    5.611220   6.048299   5.588441   6.104418   7.114130
    38  C    4.972379   5.829354   5.666680   6.626723   6.327093
    39  H    4.892074   5.794225   5.691379   6.445185   6.440919
    40  H    4.044257   4.877256   4.786268   5.742819   5.291931
    41  H    5.630626   6.554576   6.553505   7.358091   6.950546
                    6          7          8          9         10
     6  H    0.000000
     7  H    1.772772   0.000000
     8  C    2.173246   2.163667   0.000000
     9  C    2.774203   2.788742   1.548960   0.000000
    10  H    2.524277   3.076423   1.107131   2.174928   0.000000
    11  H    2.487209   3.037785   2.179525   1.105231   2.562263
    12  H    3.143199   2.581710   2.158768   1.105448   3.071122
    13  O    3.410324   2.748973   1.449130   2.468362   2.034399
    14  H    3.568360   2.418018   1.962254   2.695461   2.836955
    15  C    4.184026   4.250767   2.576156   1.542157   2.760418
    16  H    4.893221   4.920229   3.536960   2.203332   3.805275
    17  H    4.739029   4.501210   2.781515   2.186242   3.010185
    18  H    4.369214   4.807758   2.886796   2.192698   2.628352
    19  H    5.551069   4.794809   4.346071   3.146712   5.129967
    20  C    6.513124   5.579718   5.197165   4.141351   5.995483
    21  C    6.871480   5.872329   5.173878   4.439772   5.868919
    22  H    6.673776   5.533847   5.569424   4.627567   6.489002
    23  H    7.327500   6.531967   6.064214   4.862345   6.785037
    24  H    6.988851   6.225077   5.148643   4.373142   5.660649
    25  H    7.915479   6.818576   6.220316   5.538173   6.918758
    26  C    6.130781   4.950342   4.360242   4.071261   5.112727
    27  C    6.994903   5.860685   5.038227   5.078837   5.594079
    28  H    5.073236   4.003026   3.265991   3.042849   4.038804
    29  H    7.181393   6.281693   5.090214   5.067259   5.460346
    30  H    8.003584   6.776527   6.101713   6.062021   6.691001
    31  O    6.421925   4.946105   5.001373   4.793481   5.922211
    32  C    5.616346   3.978383   4.552786   4.533744   5.576004
    33  O    4.435651   2.783393   3.477571   3.680944   4.523169
    34  C    6.622800   4.897623   5.889881   5.855680   6.947205
    35  H    7.006647   5.362259   6.362240   6.069366   7.444062
    36  H    7.536642   5.799106   6.643570   6.691363   7.653168
    37  H    6.342368   4.587075   5.926982   6.053244   6.989887
    38  C    6.703488   5.514609   4.840338   5.337529   5.345052
    39  H    6.758810   5.361679   5.133284   5.667416   5.784109
    40  H    5.820710   4.789902   3.930520   4.630421   4.344144
    41  H    7.599090   6.484761   5.702667   6.283750   6.069802
                   11         12         13         14         15
    11  H    0.000000
    12  H    1.771399   0.000000
    13  O    3.411726   2.704261   0.000000
    14  H    3.646880   2.517647   0.985515   0.000000
    15  C    2.181547   2.188352   3.015164   3.433123   0.000000
    16  H    2.569656   2.513387   3.982854   4.238575   1.101966
    17  H    3.096095   2.582608   2.650340   3.062263   1.100453
    18  H    2.510208   3.105513   3.476702   4.113803   1.103083
    19  H    3.728252   2.419003   4.356392   4.025621   3.007032
    20  C    4.805068   3.385346   4.955965   4.534503   3.878154
    21  C    5.334802   3.878598   4.552784   4.212796   3.926972
    22  H    5.253988   3.689558   5.295413   4.690773   4.677673
    23  H    5.395974   4.199139   5.921488   5.575504   4.402704
    24  H    5.253328   4.068963   4.585606   4.481117   3.497504
    25  H    6.429224   4.936546   5.490832   5.094629   5.006684
    26  C    5.104329   3.526313   3.440975   2.985460   3.889039
    27  C    6.171788   4.757712   3.821687   3.557224   4.716998
    28  H    4.106378   2.594574   2.437639   2.050839   3.026658
    29  H    6.143278   4.947614   3.955345   3.954062   4.398724
    30  H    7.137301   5.642214   4.894735   4.545935   5.668521
    31  O    5.737776   3.994263   4.118969   3.356358   4.994014
    32  C    5.378344   3.659423   3.812571   2.875995   5.146636
    33  O    4.490570   2.915035   2.865359   1.887499   4.542205
    34  C    6.582220   4.893580   5.232601   4.261230   6.568768
    35  H    6.706120   5.020572   5.862018   4.915780   6.734864
    36  H    7.497499   5.779738   5.801435   4.861197   7.270420
    37  H    6.683067   5.124227   5.383316   4.399530   6.977557
    38  C    6.430326   5.107725   3.427789   3.169985   5.266424
    39  H    6.722559   5.272607   3.766201   3.251452   5.846790
    40  H    5.698280   4.569141   2.487194   2.431030   4.648341
    41  H    7.376094   6.142503   4.266788   4.143600   6.092594
                   16         17         18         19         20
    16  H    0.000000
    17  H    1.786728   0.000000
    18  H    1.780852   1.774704   0.000000
    19  H    2.523807   3.023285   4.069387   0.000000
    20  C    3.397614   3.649551   4.925469   1.101197   0.000000
    21  C    3.721229   3.280895   4.890913   2.193389   1.542053
    22  H    4.288252   4.475693   5.764904   1.780823   1.100959
    23  H    3.686135   4.268476   5.360298   1.780882   1.101099
    24  H    3.256453   2.780153   4.313398   2.538834   2.180184
    25  H    4.754773   4.314815   5.937779   3.105451   2.186228
    26  C    4.098932   3.098555   4.834290   2.836166   2.573331
    27  C    5.087004   3.712851   5.460654   4.279437   3.958323
    28  H    3.430041   2.321611   3.967629   2.620992   2.803583
    29  H    4.763050   3.318347   4.991610   4.441658   4.200605
    30  H    5.908863   4.679659   6.443160   4.810459   4.250570
    31  O    5.162748   4.372578   6.009031   3.345323   2.943124
    32  C    5.437450   4.712361   6.148154   3.712697   3.628646
    33  O    5.009176   4.235453   5.460664   3.765529   4.026036
    34  C    6.766922   6.197027   7.593269   4.764387   4.529408
    35  H    6.757829   6.454967   7.806441   4.513394   4.188905
    36  H    7.486421   6.764039   8.281354   5.474744   5.075364
    37  H    7.260320   6.701868   7.954588   5.422618   5.357046
    38  C    5.887114   4.307642   5.900135   5.284428   5.148869
    39  H    6.437931   4.989422   6.574427   5.495103   5.316969
    40  H    5.422634   3.758134   5.176285   5.200822   5.295372
    41  H    6.733432   5.079053   6.615478   6.272450   6.079107
                   21         22         23         24         25
    21  C    0.000000
    22  H    2.189462   0.000000
    23  H    2.193776   1.780649   0.000000
    24  H    1.103896   3.098254   2.528598   0.000000
    25  H    1.104349   2.545931   2.529775   1.773249   0.000000
    26  C    1.537041   2.846611   3.526838   2.140929   2.165198
    27  C    2.582440   4.276833   4.770059   2.792127   2.794814
    28  H    2.176878   3.165638   3.813044   2.507650   3.079973
    29  H    2.752188   4.762471   4.869212   2.505414   3.039527
    30  H    2.826917   4.449995   4.943068   3.162268   2.588599
    31  O    2.425195   2.619516   3.937846   3.375366   2.673089
    32  C    3.511453   3.134377   4.687338   4.405341   3.944229
    33  O    3.989414   3.732118   5.117107   4.684728   4.669572
    34  C    4.603156   3.726066   5.465580   5.617464   4.783657
    35  H    4.552952   3.218006   4.990058   5.622073   4.661673
    36  H    4.892170   4.302564   5.967725   5.910808   4.860593
    37  H    5.523353   4.565375   6.315044   6.490173   5.807493
    38  C    3.959059   5.327731   6.081020   4.197363   4.259120
    39  H    4.300331   5.267339   6.309091   4.779948   4.526362
    40  H    4.257834   5.559558   6.262339   4.368755   4.796460
    41  H    4.767140   6.296990   6.944681   4.886620   4.923810
                   26         27         28         29         30
    26  C    0.000000
    27  C    1.537149   0.000000
    28  H    1.096814   2.168947   0.000000
    29  H    2.142058   1.104335   2.538729   0.000000
    30  H    2.160108   1.104581   3.069243   1.772535   0.000000
    31  O    1.491263   2.445825   2.107439   3.387138   2.643794
    32  C    2.461872   3.420677   2.508661   4.355648   3.807170
    33  O    2.831131   3.768770   2.365965   4.545384   4.435273
    34  C    3.779384   4.621335   4.000735   5.641971   4.732650
    35  H    4.086150   5.127391   4.375857   6.087907   5.160412
    36  H    4.033630   4.563826   4.466800   5.647184   4.456464
    37  H    4.598045   5.412867   4.616762   6.419885   5.632365
    38  C    2.576549   1.542741   2.755429   2.178710   2.192749
    39  H    2.841387   2.192902   3.075772   3.099663   2.566233
    40  H    2.849537   2.189828   2.585113   2.520924   3.106531
    41  H    3.527217   2.191147   3.783050   2.535306   2.521305
                   31         32         33         34         35
    31  O    0.000000
    32  C    1.356308   0.000000
    33  O    2.306144   1.232988   0.000000
    34  C    2.365034   1.521246   2.432650   0.000000
    35  H    2.701266   2.154710   3.083457   1.101564   0.000000
    36  H    2.574231   2.164813   3.194548   1.099777   1.774085
    37  H    3.294840   2.152364   2.578413   1.096284   1.795810
    38  C    3.036682   3.503331   3.591097   4.645886   5.426952
    39  H    2.722331   2.938487   3.163633   3.843854   4.731932
    40  H    3.483940   3.676783   3.386013   4.971694   5.775047
    41  H    4.003466   4.533460   4.656749   5.555539   6.360197
                   36         37         38         39         40
    36  H    0.000000
    37  H    1.804344   0.000000
    38  C    4.526656   5.198839   0.000000
    39  H    3.621862   4.328502   1.101622   0.000000
    40  H    5.058278   5.372232   1.100258   1.783269   0.000000
    41  H    5.284377   6.098421   1.101400   1.777935   1.785491
                   41
    41  H    0.000000
 Stoichiometry    C12H26O3
 Framework group  C1[X(C12H26O3)]
 Deg. of freedom   117
 Full point group                 C1      NOp   1
 Largest Abelian subgroup         C1      NOp   1
 Largest concise Abelian subgroup C1      NOp   1
                         Standard orientation:                         
 ---------------------------------------------------------------------
 Center     Atomic      Atomic             Coordinates (Angstroms)
 Number     Number       Type             X           Y           Z
 ---------------------------------------------------------------------
      1          1           0       -3.282728   -2.029145    0.968921
      2          6           0       -4.019144   -1.595902    0.275885
      3          6           0       -3.337757   -0.568560   -0.649781
      4          1           0       -4.483414   -2.412657   -0.299375
      5          1           0       -4.806662   -1.119487    0.884308
      6          1           0       -4.082678   -0.105902   -1.322641
      7          1           0       -2.600032   -1.077406   -1.296988
      8          6           0       -2.604734    0.549162    0.129794
      9          6           0       -1.947744    1.589993   -0.810585
     10          1           0       -3.333060    1.067813    0.782695
     11          1           0       -2.698352    1.949209   -1.537968
     12          1           0       -1.168028    1.068495   -1.395476
     13          8           0       -1.626944   -0.009604    1.041762
     14          1           0       -1.049930   -0.591185    0.493985
     15          6           0       -1.339722    2.786094   -0.050387
     16          1           0       -0.785955    3.460118   -0.723708
     17          1           0       -0.652024    2.435616    0.733980
     18          1           0       -2.127329    3.378724    0.444849
     19          1           0        1.022976    2.030444   -1.750062
     20          6           0        2.106159    1.905115   -1.596303
     21          6           0        2.433942    1.700849   -0.103400
     22          1           0        2.434795    1.038287   -2.190204
     23          1           0        2.610673    2.799343   -1.994096
     24          1           0        2.112108    2.583966    0.475490
     25          1           0        3.524725    1.604613    0.039839
     26          6           0        1.738112    0.476273    0.512011
     27          6           0        2.065198    0.242401    1.995636
     28          1           0        0.651729    0.547718    0.379092
     29          1           0        1.838068    1.180291    2.532600
     30          1           0        3.152492    0.074731    2.094528
     31          8           0        2.220390   -0.710373   -0.251627
     32          6           0        1.321120   -1.551546   -0.820235
     33          8           0        0.094701   -1.471036   -0.721882
     34          6           0        2.035199   -2.623615   -1.629524
     35          1           0        2.509010   -2.162850   -2.510797
     36          1           0        2.833632   -3.085926   -1.030956
     37          1           0        1.311988   -3.380596   -1.954767
     38          6           0        1.272863   -0.921769    2.625687
     39          1           0        1.474692   -1.867054    2.097225
     40          1           0        0.190859   -0.727459    2.580077
     41          1           0        1.556309   -1.062564    3.680636
 ---------------------------------------------------------------------
 Rotational constants (GHZ):           0.6109695           0.3647661           0.3197261
 Leave Link  202 at Sat Jan 21 11:03:04 2023, MaxMem=   131072000 cpu:               0.0 elap:               0.0
 (Enter /dragofs/sw/campus/0.2/software/gaussian/16.gaussian/gaussian/g16_legacy/l301.exe)
 Standard basis: 6-31G(d) (6D, 7F)
 Ernie: Thresh=  0.10000D-02 Tol=  0.10000D-05 Strict=F.
 There are   277 symmetry adapted cartesian basis functions of A   symmetry.
 There are   277 symmetry adapted basis functions of A   symmetry.
   277 basis functions,   524 primitive gaussians,   277 cartesian basis functions
    61 alpha electrons       61 beta electrons
       nuclear repulsion energy      1135.0742961997 Hartrees.
 IExCor=  402 DFT=T Ex=B Corr=LYP ExCW=0 ScaHFX=  0.000000
 ScaDFX=  1.000000  1.000000  1.000000  1.000000 ScalE2=  1.000000  1.000000
 IRadAn=      5 IRanWt=     -1 IRanGd=            0 ICorTp=0 IEmpDi=131
 NAtoms=   41 NActive=   41 NUniq=   41 SFac= 1.00D+00 NAtFMM=   60 NAOKFM=F Big=F
 Integral buffers will be    131072 words long.
 Raffenetti 2 integral format.
 Two-electron integral symmetry is turned on.
 R6Disp:  Grimme-D3 Dispersion energy=       -0.0544067159 Hartrees.
 Nuclear repulsion after empirical dispersion term =     1135.0198894838 Hartrees.
 Leave Link  301 at Sat Jan 21 11:03:04 2023, MaxMem=   131072000 cpu:               0.4 elap:               0.1
 (Enter /dragofs/sw/campus/0.2/software/gaussian/16.gaussian/gaussian/g16_legacy/l302.exe)
 NPDir=0 NMtPBC=     1 NCelOv=     1 NCel=       1 NClECP=     1 NCelD=      1
         NCelK=      1 NCelE2=     1 NClLst=     1 CellRange=     0.0.
 One-electron integrals computed using PRISM.
 One-electron integral symmetry used in STVInt
 NBasis=   277 RedAO= T EigKep=  3.19D-03  NBF=   277
 NBsUse=   277 1.00D-06 EigRej= -1.00D+00 NBFU=   277
 Precomputing XC quadrature grid using
 IXCGrd= 4 IRadAn=           5 IRanWt=          -1 IRanGd=           0 AccXCQ= 0.00D+00.
 Generated NRdTot=       0 NPtTot=           0 NUsed=           0 NTot=          32
 NSgBfM=   276   276   276   276   276 MxSgAt=    41 MxSgA2=    41.
 Leave Link  302 at Sat Jan 21 11:03:05 2023, MaxMem=   131072000 cpu:               3.4 elap:               0.4
 (Enter /dragofs/sw/campus/0.2/software/gaussian/16.gaussian/gaussian/g16_legacy/l303.exe)
 DipDrv:  MaxL=1.
 Leave Link  303 at Sat Jan 21 11:03:05 2023, MaxMem=   131072000 cpu:               0.3 elap:               0.0
 (Enter /dragofs/sw/campus/0.2/software/gaussian/16.gaussian/gaussian/g16_legacy/l401.exe)
 ExpMin= 1.61D-01 ExpMax= 5.48D+03 ExpMxC= 8.25D+02 IAcc=3 IRadAn=         5 AccDes= 0.00D+00
 Harris functional with IExCor=  402 and IRadAn=       5 diagonalized for initial guess.
 HarFok:  IExCor=  402 AccDes= 0.00D+00 IRadAn=         5 IDoV= 1 UseB2=F ITyADJ=14
 ICtDFT=  3500011 ScaDFX=  1.000000  1.000000  1.000000  1.000000
 FoFCou: FMM=F IPFlag=           0 FMFlag=      100000 FMFlg1=           0
         NFxFlg=           0 DoJE=T BraDBF=F KetDBF=T FulRan=T
         wScrn=  0.000000 ICntrl=       500 IOpCl=  0 I1Cent=   200000004 NGrid=           0
         NMat0=    1 NMatS0=      1 NMatT0=    0 NMatD0=    1 NMtDS0=    0 NMtDT0=    0
 Petite list used in FoFCou.
 Harris En= -698.803825484845    
 JPrj=0 DoOrth=F DoCkMO=F.
 Leave Link  401 at Sat Jan 21 11:03:07 2023, MaxMem=   131072000 cpu:              19.3 elap:               2.4
 (Enter /dragofs/sw/campus/0.2/software/gaussian/16.gaussian/gaussian/g16_legacy/l502.exe)
 Integral symmetry usage will be decided dynamically.
 Closed shell SCF:
 Using DIIS extrapolation, IDIIS=  1040.
 NGot=   131072000 LenX=   130912832 LenY=   130835662
 Requested convergence on RMS density matrix=1.00D-08 within 128 cycles.
 Requested convergence on MAX density matrix=1.00D-06.
 Requested convergence on             energy=1.00D-06.
 No special actions if energy rises.
 Fock matrices will be formed incrementally for  20 cycles.
 Integral accuracy reduced to 1.0D-05 until final iterations.

 Cycle   1  Pass 0  IDiag  1:
 FoFJK:  IHMeth= 1 ICntrl=     500 DoSepK=F KAlg= 0 I1Cent=           0 FoldK=F
 IRaf= 870000000 NMat=       1 IRICut=       1 DoRegI=T DoRafI=F ISym2E= 0 IDoP0=0 IntGTp=1.
 FoFCou: FMM=F IPFlag=           0 FMFlag=      100000 FMFlg1=           0
         NFxFlg=           0 DoJE=T BraDBF=F KetDBF=F FulRan=T
         wScrn=  0.000000 ICntrl=       500 IOpCl=  0 I1Cent=           0 NGrid=           0
         NMat0=    1 NMatS0=      1 NMatT0=    0 NMatD0=    1 NMtDS0=    0 NMtDT0=    0
 Symmetry not used in FoFCou.
 E= -697.798051069170    
 DIIS: error= 3.63D-02 at cycle   1 NSaved=   1.
 NSaved= 1 IEnMin= 1 EnMin= -697.798051069170     IErMin= 1 ErrMin= 3.63D-02
 ErrMax= 3.63D-02  0.00D+00 EMaxC= 1.00D-01 BMatC= 5.24D-01 BMatP= 5.24D-01
 IDIUse=3 WtCom= 6.37D-01 WtEn= 3.63D-01
 Coeff-Com:  0.100D+01
 Coeff-En:   0.100D+01
 Coeff:      0.100D+01
 Gap=     0.041 Goal=   None    Shift=    0.000
 GapD=    0.041 DampG=0.250 DampE=0.500 DampFc=0.2500 IDamp=-1.
 Damping current iteration by 2.50D-01
 RMSDP=7.37D-03 MaxDP=2.10D-01              OVMax= 2.24D-01

 Cycle   2  Pass 0  IDiag  1:
 RMSU=  1.83D-03    CP:  9.89D-01
 E= -697.994883108314     Delta-E=       -0.196832039144 Rises=F Damp=T
 DIIS: error= 1.43D-02 at cycle   2 NSaved=   2.
 NSaved= 2 IEnMin= 2 EnMin= -697.994883108314     IErMin= 2 ErrMin= 1.43D-02
 ErrMax= 1.43D-02  0.00D+00 EMaxC= 1.00D-01 BMatC= 7.67D-02 BMatP= 5.24D-01
 IDIUse=3 WtCom= 8.57D-01 WtEn= 1.43D-01
 Coeff-Com: -0.450D+00 0.145D+01
 Coeff-En:   0.000D+00 0.100D+01
 Coeff:     -0.386D+00 0.139D+01
 Gap=     0.131 Goal=   None    Shift=    0.000
 RMSDP=1.92D-03 MaxDP=5.45D-02 DE=-1.97D-01 OVMax= 2.02D-01

 Cycle   3  Pass 0  IDiag  1:
 RMSU=  1.69D-03    CP:  9.77D-01  1.48D+00
 E= -698.235776733360     Delta-E=       -0.240893625045 Rises=F Damp=F
 DIIS: error= 2.62D-02 at cycle   3 NSaved=   3.
 NSaved= 3 IEnMin= 3 EnMin= -698.235776733360     IErMin= 2 ErrMin= 1.43D-02
 ErrMax= 2.62D-02  0.00D+00 EMaxC= 1.00D-01 BMatC= 1.16D-01 BMatP= 7.67D-02
 IDIUse=2 WtCom= 0.00D+00 WtEn= 1.00D+00
 Coeff-En:   0.000D+00 0.000D+00 0.100D+01
 Coeff:      0.000D+00 0.000D+00 0.100D+01
 Gap=     0.114 Goal=   None    Shift=    0.000
 RMSDP=4.55D-03 MaxDP=2.44D-01 DE=-2.41D-01 OVMax= 5.37D-01

 Cycle   4  Pass 0  IDiag  1:
 RMSU=  2.45D-03    CP:  9.89D-01  1.86D+00 -1.22D+00
 E= -697.256564840823     Delta-E=        0.979211892537 Rises=F Damp=F
 DIIS: error= 8.21D-02 at cycle   4 NSaved=   4.
 NSaved= 4 IEnMin= 3 EnMin= -698.235776733360     IErMin= 2 ErrMin= 1.43D-02
 ErrMax= 8.21D-02  0.00D+00 EMaxC= 1.00D-01 BMatC= 1.30D+00 BMatP= 7.67D-02
 IDIUse=2 WtCom= 0.00D+00 WtEn= 1.00D+00
 Coeff-En:   0.000D+00 0.000D+00 0.854D+00 0.146D+00
 Coeff:      0.000D+00 0.000D+00 0.854D+00 0.146D+00
 Gap=     0.161 Goal=   None    Shift=    0.000
 RMSDP=2.67D-03 MaxDP=1.37D-01 DE= 9.79D-01 OVMax= 2.78D-01

 Cycle   5  Pass 0  IDiag  1:
 RMSU=  5.97D-04    CP:  9.86D-01  1.45D+00 -1.26D-01  3.21D-01
 E= -698.222946266722     Delta-E=       -0.966381425899 Rises=F Damp=F
 DIIS: error= 2.45D-02 at cycle   5 NSaved=   5.
 NSaved= 5 IEnMin= 3 EnMin= -698.235776733360     IErMin= 2 ErrMin= 1.43D-02
 ErrMax= 2.45D-02  0.00D+00 EMaxC= 1.00D-01 BMatC= 1.39D-01 BMatP= 7.67D-02
 IDIUse=2 WtCom= 0.00D+00 WtEn= 1.00D+00
 Coeff-En:   0.000D+00 0.000D+00 0.520D+00 0.000D+00 0.480D+00
 Coeff:      0.000D+00 0.000D+00 0.520D+00 0.000D+00 0.480D+00
 Gap=     0.152 Goal=   None    Shift=    0.000
 RMSDP=1.12D-03 MaxDP=6.24D-02 DE=-9.66D-01 OVMax= 1.23D-01

 Cycle   6  Pass 0  IDiag  1:
 RMSU=  1.63D-04    CP:  9.83D-01  1.42D+00  4.34D-01  1.19D-01  5.84D-01
 E= -698.335821950430     Delta-E=       -0.112875683708 Rises=F Damp=F
 DIIS: error= 1.37D-03 at cycle   6 NSaved=   6.
 NSaved= 6 IEnMin= 6 EnMin= -698.335821950430     IErMin= 6 ErrMin= 1.37D-03
 ErrMax= 1.37D-03  0.00D+00 EMaxC= 1.00D-01 BMatC= 9.57D-04 BMatP= 7.67D-02
 IDIUse=3 WtCom= 9.86D-01 WtEn= 1.37D-02
 Coeff-Com: -0.275D-01 0.494D-01 0.223D+00-0.386D-01 0.314D+00 0.480D+00
 Coeff-En:   0.000D+00 0.000D+00 0.000D+00 0.000D+00 0.000D+00 0.100D+01
 Coeff:     -0.272D-01 0.487D-01 0.220D+00-0.381D-01 0.310D+00 0.487D+00
 Gap=     0.159 Goal=   None    Shift=    0.000
 RMSDP=1.38D-04 MaxDP=8.13D-03 DE=-1.13D-01 OVMax= 1.30D-02

 Cycle   7  Pass 0  IDiag  1:
 RMSU=  8.22D-05    CP:  9.82D-01  1.45D+00  4.22D-01  1.40D-01  6.21D-01
                    CP:  5.22D-01
 E= -698.336288582642     Delta-E=       -0.000466632212 Rises=F Damp=F
 DIIS: error= 1.22D-03 at cycle   7 NSaved=   7.
 NSaved= 7 IEnMin= 7 EnMin= -698.336288582642     IErMin= 7 ErrMin= 1.22D-03
 ErrMax= 1.22D-03  0.00D+00 EMaxC= 1.00D-01 BMatC= 4.28D-04 BMatP= 9.57D-04
 IDIUse=3 WtCom= 9.88D-01 WtEn= 1.22D-02
 Coeff-Com: -0.127D-01 0.203D-01 0.903D-01-0.203D-01 0.129D+00 0.345D+00
 Coeff-Com:  0.448D+00
 Coeff-En:   0.000D+00 0.000D+00 0.000D+00 0.000D+00 0.000D+00 0.317D+00
 Coeff-En:   0.683D+00
 Coeff:     -0.126D-01 0.200D-01 0.892D-01-0.201D-01 0.128D+00 0.345D+00
 Coeff:      0.451D+00
 Gap=     0.157 Goal=   None    Shift=    0.000
 RMSDP=6.69D-05 MaxDP=3.03D-03 DE=-4.67D-04 OVMax= 4.83D-03

 Cycle   8  Pass 0  IDiag  1:
 RMSU=  2.96D-05    CP:  9.82D-01  1.45D+00  4.27D-01  1.30D-01  6.23D-01
                    CP:  5.90D-01  3.58D-01
 E= -698.336586780639     Delta-E=       -0.000298197997 Rises=F Damp=F
 DIIS: error= 3.44D-04 at cycle   8 NSaved=   8.
 NSaved= 8 IEnMin= 8 EnMin= -698.336586780639     IErMin= 8 ErrMin= 3.44D-04
 ErrMax= 3.44D-04  0.00D+00 EMaxC= 1.00D-01 BMatC= 4.63D-05 BMatP= 4.28D-04
 IDIUse=3 WtCom= 9.97D-01 WtEn= 3.44D-03
 Coeff-Com:  0.208D-02-0.520D-02 0.119D-01-0.130D-02 0.366D-02 0.146D+00
 Coeff-Com:  0.258D+00 0.585D+00
 Coeff-En:   0.000D+00 0.000D+00 0.000D+00 0.000D+00 0.000D+00 0.000D+00
 Coeff-En:   0.000D+00 0.100D+01
 Coeff:      0.208D-02-0.518D-02 0.119D-01-0.130D-02 0.365D-02 0.146D+00
 Coeff:      0.257D+00 0.586D+00
 Gap=     0.157 Goal=   None    Shift=    0.000
 RMSDP=2.32D-05 MaxDP=1.18D-03 DE=-2.98D-04 OVMax= 1.35D-03

 Cycle   9  Pass 0  IDiag  1:
 RMSU=  6.52D-06    CP:  9.82D-01  1.45D+00  4.34D-01  1.29D-01  6.12D-01
                    CP:  6.23D-01  4.60D-01  5.79D-01
 E= -698.336621207840     Delta-E=       -0.000034427201 Rises=F Damp=F
 DIIS: error= 5.20D-05 at cycle   9 NSaved=   9.
 NSaved= 9 IEnMin= 9 EnMin= -698.336621207840     IErMin= 9 ErrMin= 5.20D-05
 ErrMax= 5.20D-05  0.00D+00 EMaxC= 1.00D-01 BMatC= 1.19D-06 BMatP= 4.63D-05
 IDIUse=1 WtCom= 1.00D+00 WtEn= 0.00D+00
 Coeff-Com:  0.147D-02-0.277D-02 0.414D-02-0.113D-03-0.241D-02 0.660D-01
 Coeff-Com:  0.126D+00 0.326D+00 0.482D+00
 Coeff:      0.147D-02-0.277D-02 0.414D-02-0.113D-03-0.241D-02 0.660D-01
 Coeff:      0.126D+00 0.326D+00 0.482D+00
 Gap=     0.157 Goal=   None    Shift=    0.000
 RMSDP=4.04D-06 MaxDP=1.39D-04 DE=-3.44D-05 OVMax= 1.66D-04

 Initial convergence to 1.0D-05 achieved.  Increase integral accuracy.
 Cycle  10  Pass 1  IDiag  1:
 E= -698.336581967647     Delta-E=        0.000039240193 Rises=F Damp=F
 DIIS: error= 2.23D-05 at cycle   1 NSaved=   1.
 NSaved= 1 IEnMin= 1 EnMin= -698.336581967647     IErMin= 1 ErrMin= 2.23D-05
 ErrMax= 2.23D-05  0.00D+00 EMaxC= 1.00D-01 BMatC= 1.71D-07 BMatP= 1.71D-07
 IDIUse=1 WtCom= 1.00D+00 WtEn= 0.00D+00
 Coeff-Com:  0.100D+01
 Coeff:      0.100D+01
 Gap=     0.157 Goal=   None    Shift=    0.000
 RMSDP=4.04D-06 MaxDP=1.39D-04 DE= 3.92D-05 OVMax= 1.26D-04

 Cycle  11  Pass 1  IDiag  1:
 RMSU=  6.34D-06    CP:  1.00D+00
 E= -698.336581939769     Delta-E=        0.000000027878 Rises=F Damp=F
 DIIS: error= 2.82D-05 at cycle   2 NSaved=   2.
 NSaved= 2 IEnMin= 1 EnMin= -698.336581967647     IErMin= 1 ErrMin= 2.23D-05
 ErrMax= 2.82D-05  0.00D+00 EMaxC= 1.00D-01 BMatC= 2.34D-07 BMatP= 1.71D-07
 IDIUse=1 WtCom= 1.00D+00 WtEn= 0.00D+00
 Coeff-Com:  0.551D+00 0.449D+00
 Coeff:      0.551D+00 0.449D+00
 Gap=     0.157 Goal=   None    Shift=    0.000
 RMSDP=2.23D-06 MaxDP=1.22D-04 DE= 2.79D-08 OVMax= 1.90D-04

 Cycle  12  Pass 1  IDiag  1:
 RMSU=  2.12D-06    CP:  1.00D+00  8.93D-01
 E= -698.336582055767     Delta-E=       -0.000000115998 Rises=F Damp=F
 DIIS: error= 2.38D-05 at cycle   3 NSaved=   3.
 NSaved= 3 IEnMin= 3 EnMin= -698.336582055767     IErMin= 1 ErrMin= 2.23D-05
 ErrMax= 2.38D-05  0.00D+00 EMaxC= 1.00D-01 BMatC= 1.07D-07 BMatP= 1.71D-07
 IDIUse=1 WtCom= 1.00D+00 WtEn= 0.00D+00
 Coeff-Com:  0.149D+00 0.374D+00 0.477D+00
 Coeff:      0.149D+00 0.374D+00 0.477D+00
 Gap=     0.157 Goal=   None    Shift=    0.000
 RMSDP=1.29D-06 MaxDP=8.56D-05 DE=-1.16D-07 OVMax= 1.50D-04

 Cycle  13  Pass 1  IDiag  1:
 RMSU=  9.20D-07    CP:  1.00D+00  9.14D-01  5.78D-01
 E= -698.336582117032     Delta-E=       -0.000000061265 Rises=F Damp=F
 DIIS: error= 9.38D-06 at cycle   4 NSaved=   4.
 NSaved= 4 IEnMin= 4 EnMin= -698.336582117032     IErMin= 4 ErrMin= 9.38D-06
 ErrMax= 9.38D-06  0.00D+00 EMaxC= 1.00D-01 BMatC= 2.58D-08 BMatP= 1.07D-07
 IDIUse=1 WtCom= 1.00D+00 WtEn= 0.00D+00
 Coeff-Com:  0.106D-01 0.207D+00 0.377D+00 0.406D+00
 Coeff:      0.106D-01 0.207D+00 0.377D+00 0.406D+00
 Gap=     0.157 Goal=   None    Shift=    0.000
 RMSDP=5.42D-07 MaxDP=2.41D-05 DE=-6.13D-08 OVMax= 5.36D-05

 Cycle  14  Pass 1  IDiag  1:
 RMSU=  1.46D-07    CP:  1.00D+00  9.21D-01  6.29D-01  4.47D-01
 E= -698.336582138711     Delta-E=       -0.000000021679 Rises=F Damp=F
 DIIS: error= 1.22D-06 at cycle   5 NSaved=   5.
 NSaved= 5 IEnMin= 5 EnMin= -698.336582138711     IErMin= 5 ErrMin= 1.22D-06
 ErrMax= 1.22D-06  0.00D+00 EMaxC= 1.00D-01 BMatC= 6.91D-10 BMatP= 2.58D-08
 IDIUse=1 WtCom= 1.00D+00 WtEn= 0.00D+00
 Coeff-Com:  0.134D-02 0.120D+00 0.224D+00 0.258D+00 0.396D+00
 Coeff:      0.134D-02 0.120D+00 0.224D+00 0.258D+00 0.396D+00
 Gap=     0.157 Goal=   None    Shift=    0.000
 RMSDP=9.93D-08 MaxDP=4.44D-06 DE=-2.17D-08 OVMax= 4.89D-06

 Cycle  15  Pass 1  IDiag  1:
 RMSU=  4.05D-08    CP:  1.00D+00  9.22D-01  6.25D-01  4.38D-01  3.88D-01
 E= -698.336582139264     Delta-E=       -0.000000000553 Rises=F Damp=F
 DIIS: error= 1.97D-07 at cycle   6 NSaved=   6.
 NSaved= 6 IEnMin= 6 EnMin= -698.336582139264     IErMin= 6 ErrMin= 1.97D-07
 ErrMax= 1.97D-07  0.00D+00 EMaxC= 1.00D-01 BMatC= 2.48D-11 BMatP= 6.91D-10
 IDIUse=1 WtCom= 1.00D+00 WtEn= 0.00D+00
 Coeff-Com: -0.638D-04 0.478D-01 0.903D-01 0.106D+00 0.219D+00 0.537D+00
 Coeff:     -0.638D-04 0.478D-01 0.903D-01 0.106D+00 0.219D+00 0.537D+00
 Gap=     0.157 Goal=   None    Shift=    0.000
 RMSDP=2.15D-08 MaxDP=6.10D-07 DE=-5.53D-10 OVMax= 9.11D-07

 Cycle  16  Pass 1  IDiag  1:
 RMSU=  8.31D-09    CP:  1.00D+00  9.22D-01  6.25D-01  4.39D-01  4.21D-01
                    CP:  5.28D-01
 E= -698.336582139252     Delta-E=        0.000000000013 Rises=F Damp=F
 DIIS: error= 4.86D-08 at cycle   7 NSaved=   7.
 NSaved= 7 IEnMin= 6 EnMin= -698.336582139264     IErMin= 7 ErrMin= 4.86D-08
 ErrMax= 4.86D-08  0.00D+00 EMaxC= 1.00D-01 BMatC= 1.28D-12 BMatP= 2.48D-11
 IDIUse=1 WtCom= 1.00D+00 WtEn= 0.00D+00
 Coeff-Com: -0.812D-04 0.228D-01 0.430D-01 0.507D-01 0.110D+00 0.304D+00
 Coeff-Com:  0.470D+00
 Coeff:     -0.812D-04 0.228D-01 0.430D-01 0.507D-01 0.110D+00 0.304D+00
 Coeff:      0.470D+00
 Gap=     0.157 Goal=   None    Shift=    0.000
 RMSDP=4.55D-09 MaxDP=1.86D-07 DE= 1.25D-11 OVMax= 2.25D-07

 SCF Done:  E(RB-LYP) =  -698.336582139     A.U. after   16 cycles
            NFock= 16  Conv=0.45D-08     -V/T= 2.0098
 KE= 6.915597360827D+02 PE=-3.894926643013D+03 EE= 1.370010435307D+03
 Leave Link  502 at Sat Jan 21 11:03:45 2023, MaxMem=   131072000 cpu:             301.3 elap:              37.9
 (Enter /dragofs/sw/campus/0.2/software/gaussian/16.gaussian/gaussian/g16_legacy/l801.exe)
 DoSCS=F DFT=T ScalE2(SS,OS)=  1.000000  1.000000
 Range of M.O.s used for correlation:     1   277
 NBasis=   277 NAE=    61 NBE=    61 NFC=     0 NFV=     0
 NROrb=    277 NOA=    61 NOB=    61 NVA=   216 NVB=   216
 Leave Link  801 at Sat Jan 21 11:03:45 2023, MaxMem=   131072000 cpu:               0.1 elap:               0.0
 (Enter /dragofs/sw/campus/0.2/software/gaussian/16.gaussian/gaussian/g16_legacy/l1101.exe)
 Using compressed storage, NAtomX=    41.
 Will process     42 centers per pass.
 R6Disp: Adding Grimme-D3 dispersion energy 1st derivatives to the gradient.
 Leave Link 1101 at Sat Jan 21 11:03:46 2023, MaxMem=   131072000 cpu:               1.7 elap:               0.2
 (Enter /dragofs/sw/campus/0.2/software/gaussian/16.gaussian/gaussian/g16_legacy/l1102.exe)
 Symmetrizing basis deriv contribution to polar:
 IMax=3 JMax=2 DiffMx= 0.00D+00
 Leave Link 1102 at Sat Jan 21 11:03:46 2023, MaxMem=   131072000 cpu:               0.3 elap:               0.1
 (Enter /dragofs/sw/campus/0.2/software/gaussian/16.gaussian/gaussian/g16_legacy/l1110.exe)
 Forming Gx(P) for the SCF density, NAtomX=    41.
 Integral derivatives from FoFJK, PRISM(SPDF).
 Do as many integral derivatives as possible in FoFJK.
 G2DrvN: MDV=     131068912.
 G2DrvN: will do    42 centers at a time, making    1 passes.
 Calling FoFCou, ICntrl=  3507 FMM=F I1Cent=   0 AccDes= 0.00D+00.
 FoFJK:  IHMeth= 1 ICntrl=    3507 DoSepK=F KAlg= 0 I1Cent=           0 FoldK=F
 IRaf=         0 NMat=       1 IRICut=       1 DoRegI=T DoRafI=F ISym2E= 0 IDoP0=0 IntGTp=1.
 FoFCou: FMM=F IPFlag=           0 FMFlag=      100000 FMFlg1=           0
         NFxFlg=           0 DoJE=F BraDBF=F KetDBF=F FulRan=T
         wScrn=  0.000000 ICntrl=      3507 IOpCl=  0 I1Cent=           0 NGrid=           0
         NMat0=    1 NMatS0=      1 NMatT0=    0 NMatD0=    1 NMtDS0=    0 NMtDT0=    0
 Symmetry not used in FoFCou.
 End of G2Drv F.D. properties file   721 does not exist.
 End of G2Drv F.D. properties file   722 does not exist.
 End of G2Drv F.D. properties file   788 does not exist.
 Leave Link 1110 at Sat Jan 21 11:06:55 2023, MaxMem=   131072000 cpu:            1504.0 elap:             188.9
 (Enter /dragofs/sw/campus/0.2/software/gaussian/16.gaussian/gaussian/g16_legacy/l1002.exe)
 Minotr:  Closed shell wavefunction.
          IDoAtm=11111111111111111111111111111111111111111
          Direct CPHF calculation.
          Differentiating once with respect to electric field.
                with respect to dipole field.
          Differentiating once with respect to nuclear coordinates.
          Requested convergence is 1.0D-08 RMS, and 1.0D-07 maximum.
          Secondary convergence is 1.0D-12 RMS, and 1.0D-12 maximum.
          NewPWx=T KeepS1=F KeepF1=F KeepIn=T MapXYZ=F SortEE=F KeepMc=T.
        12359 words used for storage of precomputed grid.
 Two-electron integrals replicated using symmetry.
          MDV=     131072000 using IRadAn=       1.
          Solving linear equations simultaneously, MaxMat=     384.
 FoF2E skips out because all densities are zero.
 CalDSu exits because no D1Ps are significant.
 FoFJK:  IHMeth= 1 ICntrl=     500 DoSepK=F KAlg= 0 I1Cent=           0 FoldK=F
 IRaf= 840000000 NMat=     123 IRICut=       1 DoRegI=T DoRafI=F ISym2E= 2 IDoP0=0 IntGTp=1.
 FoFCou: FMM=F IPFlag=           0 FMFlag=      100000 FMFlg1=           0
         NFxFlg=           0 DoJE=F BraDBF=F KetDBF=F FulRan=T
         wScrn=  0.000000 ICntrl=       500 IOpCl=  0 I1Cent=           0 NGrid=           0
         NMat0=  123 NMatS0=    123 NMatT0=    0 NMatD0=  123 NMtDS0=    0 NMtDT0=    0
 Integrals replicated using symmetry in FoFCou.
          There are   126 degrees of freedom in the 1st order CPHF.  IDoFFX=6 NUNeed=     3.
    123 vectors produced by pass  0 Test12= 1.32D-14 1.00D-09 XBig12= 1.44D+02 4.38D+00.
 AX will form   123 AO Fock derivatives at one time.
    123 vectors produced by pass  1 Test12= 1.32D-14 1.00D-09 XBig12= 6.60D+01 2.72D+00.
    123 vectors produced by pass  2 Test12= 1.32D-14 1.00D-09 XBig12= 1.15D-01 2.97D-02.
    123 vectors produced by pass  3 Test12= 1.32D-14 1.00D-09 XBig12= 5.08D-05 3.98D-04.
     84 vectors produced by pass  4 Test12= 1.32D-14 1.00D-09 XBig12= 3.50D-09 4.38D-06.
      3 vectors produced by pass  5 Test12= 1.32D-14 1.00D-09 XBig12= 3.00D-13 7.25D-08.
 InvSVY:  IOpt=1 It=  1 EMax= 8.88D-15
 Solved reduced A of dimension   579 with   126 vectors.
 FullF1:  Do perturbations      1 to       3.
 Isotropic polarizability for W=    0.000000      145.46 Bohr**3.
 End of Minotr F.D. properties file   721 does not exist.
 End of Minotr F.D. properties file   722 does not exist.
 End of Minotr F.D. properties file   788 does not exist.
 Leave Link 1002 at Sat Jan 21 11:09:49 2023, MaxMem=   131072000 cpu:            1388.2 elap:             174.4
 (Enter /dragofs/sw/campus/0.2/software/gaussian/16.gaussian/gaussian/g16_legacy/l601.exe)
 Copying SCF densities to generalized density rwf, IOpCl= 0 IROHF=0.

 **********************************************************************

            Population analysis using the SCF density.

 **********************************************************************

 Orbital symmetries:
       Occupied  (A) (A) (A) (A) (A) (A) (A) (A) (A) (A) (A) (A)
                 (A) (A) (A) (A) (A) (A) (A) (A) (A) (A) (A) (A)
                 (A) (A) (A) (A) (A) (A) (A) (A) (A) (A) (A) (A)
                 (A) (A) (A) (A) (A) (A) (A) (A) (A) (A) (A) (A)
                 (A) (A) (A) (A) (A) (A) (A) (A) (A) (A) (A) (A)
                 (A)
       Virtual   (A) (A) (A) (A) (A) (A) (A) (A) (A) (A) (A) (A)
                 (A) (A) (A) (A) (A) (A) (A) (A) (A) (A) (A) (A)
                 (A) (A) (A) (A) (A) (A) (A) (A) (A) (A) (A) (A)
                 (A) (A) (A) (A) (A) (A) (A) (A) (A) (A) (A) (A)
                 (A) (A) (A) (A) (A) (A) (A) (A) (A) (A) (A) (A)
                 (A) (A) (A) (A) (A) (A) (A) (A) (A) (A) (A) (A)
                 (A) (A) (A) (A) (A) (A) (A) (A) (A) (A) (A) (A)
                 (A) (A) (A) (A) (A) (A) (A) (A) (A) (A) (A) (A)
                 (A) (A) (A) (A) (A) (A) (A) (A) (A) (A) (A) (A)
                 (A) (A) (A) (A) (A) (A) (A) (A) (A) (A) (A) (A)
                 (A) (A) (A) (A) (A) (A) (A) (A) (A) (A) (A) (A)
                 (A) (A) (A) (A) (A) (A) (A) (A) (A) (A) (A) (A)
                 (A) (A) (A) (A) (A) (A) (A) (A) (A) (A) (A) (A)
                 (A) (A) (A) (A) (A) (A) (A) (A) (A) (A) (A) (A)
                 (A) (A) (A) (A) (A) (A) (A) (A) (A) (A) (A) (A)
                 (A) (A) (A) (A) (A) (A) (A) (A) (A) (A) (A) (A)
                 (A) (A) (A) (A) (A) (A) (A) (A) (A) (A) (A) (A)
                 (A) (A) (A) (A) (A) (A) (A) (A) (A) (A) (A) (A)
 The electronic state is 1-A.
 Alpha  occ. eigenvalues --  -18.84070 -18.79618 -18.76367 -10.05852  -9.97742
 Alpha  occ. eigenvalues --   -9.95128  -9.94099  -9.92839  -9.92477  -9.91734
 Alpha  occ. eigenvalues --   -9.90783  -9.90755  -9.90431  -9.90391  -9.89686
 Alpha  occ. eigenvalues --   -0.99147  -0.91660  -0.88496  -0.72561  -0.68546
 Alpha  occ. eigenvalues --   -0.67206  -0.66934  -0.65414  -0.60623  -0.58104
 Alpha  occ. eigenvalues --   -0.54030  -0.53399  -0.51754  -0.50464  -0.48970
 Alpha  occ. eigenvalues --   -0.44042  -0.42279  -0.40791  -0.40128  -0.38689
 Alpha  occ. eigenvalues --   -0.38407  -0.38099  -0.37968  -0.37567  -0.36281
 Alpha  occ. eigenvalues --   -0.35842  -0.35321  -0.34283  -0.33432  -0.33045
 Alpha  occ. eigenvalues --   -0.32398  -0.31356  -0.30802  -0.30692  -0.29688
 Alpha  occ. eigenvalues --   -0.29192  -0.29179  -0.28790  -0.28028  -0.27592
 Alpha  occ. eigenvalues --   -0.27165  -0.26873  -0.24781  -0.24359  -0.22442
 Alpha  occ. eigenvalues --   -0.18781
 Alpha virt. eigenvalues --   -0.03037   0.05152   0.06774   0.07645   0.07850
 Alpha virt. eigenvalues --    0.08219   0.10141   0.10681   0.11201   0.11690
 Alpha virt. eigenvalues --    0.12325   0.12445   0.13077   0.13550   0.13802
 Alpha virt. eigenvalues --    0.14642   0.15019   0.15224   0.15580   0.16087
 Alpha virt. eigenvalues --    0.16217   0.16855   0.17193   0.17375   0.17964
 Alpha virt. eigenvalues --    0.18758   0.19250   0.20062   0.20292   0.20974
 Alpha virt. eigenvalues --    0.21360   0.21997   0.22724   0.23717   0.24481
 Alpha virt. eigenvalues --    0.24686   0.25176   0.26765   0.28132   0.35136
 Alpha virt. eigenvalues --    0.44174   0.44756   0.46346   0.47435   0.48052
 Alpha virt. eigenvalues --    0.49728   0.49771   0.50570   0.51248   0.52107
 Alpha virt. eigenvalues --    0.53624   0.53785   0.55286   0.55667   0.56076
 Alpha virt. eigenvalues --    0.57011   0.57517   0.58479   0.58940   0.59482
 Alpha virt. eigenvalues --    0.60615   0.61577   0.62672   0.63711   0.65192
 Alpha virt. eigenvalues --    0.67132   0.69169   0.70091   0.71113   0.73282
 Alpha virt. eigenvalues --    0.74208   0.74319   0.75056   0.75702   0.76553
 Alpha virt. eigenvalues --    0.78076   0.79791   0.80611   0.82103   0.83082
 Alpha virt. eigenvalues --    0.83538   0.84027   0.84839   0.85565   0.86012
 Alpha virt. eigenvalues --    0.86534   0.86910   0.87114   0.88300   0.88633
 Alpha virt. eigenvalues --    0.88809   0.89642   0.90402   0.91299   0.91683
 Alpha virt. eigenvalues --    0.92193   0.93083   0.94577   0.95774   0.96285
 Alpha virt. eigenvalues --    0.97543   0.98187   1.00244   1.01520   1.02268
 Alpha virt. eigenvalues --    1.05264   1.08023   1.09484   1.10015   1.11421
 Alpha virt. eigenvalues --    1.12711   1.16386   1.22610   1.26330   1.28749
 Alpha virt. eigenvalues --    1.29709   1.30772   1.33366   1.34929   1.36601
 Alpha virt. eigenvalues --    1.37268   1.39501   1.43877   1.44750   1.45554
 Alpha virt. eigenvalues --    1.51660   1.53075   1.53827   1.54780   1.56981
 Alpha virt. eigenvalues --    1.60354   1.63395   1.67597   1.67879   1.68276
 Alpha virt. eigenvalues --    1.70035   1.70410   1.71427   1.74719   1.74853
 Alpha virt. eigenvalues --    1.76539   1.78859   1.79261   1.81084   1.81592
 Alpha virt. eigenvalues --    1.82250   1.84972   1.85332   1.86260   1.88191
 Alpha virt. eigenvalues --    1.89337   1.90359   1.90667   1.91102   1.91955
 Alpha virt. eigenvalues --    1.94349   1.95282   1.95610   1.97327   1.98085
 Alpha virt. eigenvalues --    2.00348   2.01893   2.06163   2.07775   2.09706
 Alpha virt. eigenvalues --    2.12743   2.13373   2.13853   2.16490   2.19409
 Alpha virt. eigenvalues --    2.20856   2.22435   2.23029   2.24040   2.25132
 Alpha virt. eigenvalues --    2.25702   2.27472   2.29405   2.31309   2.32085
 Alpha virt. eigenvalues --    2.33680   2.34393   2.35227   2.40474   2.45827
 Alpha virt. eigenvalues --    2.46383   2.47310   2.49721   2.52912   2.54876
 Alpha virt. eigenvalues --    2.55247   2.61604   2.66428   2.66586   2.70583
 Alpha virt. eigenvalues --    2.72230   2.73443   2.87323   2.90353   2.95122
 Alpha virt. eigenvalues --    3.01778   3.81011   3.92006   4.02710   4.04619
 Alpha virt. eigenvalues --    4.05948   4.12717   4.13051   4.17314   4.27924
 Alpha virt. eigenvalues --    4.30285   4.33924   4.35048   4.36260   4.50223
 Alpha virt. eigenvalues --    4.56163
          Condensed to atoms (all electrons):
               1          2          3          4          5          6
     1  H    0.577636   0.368036  -0.035013  -0.030969  -0.031716   0.005730
     2  C    0.368036   5.043137   0.372881   0.359698   0.370244  -0.035795
     3  C   -0.035013   0.372881   5.055344  -0.025626  -0.034543   0.335461
     4  H   -0.030969   0.359698  -0.025626   0.614351  -0.034208  -0.002127
     5  H   -0.031716   0.370244  -0.034543  -0.034208   0.606719  -0.004796
     6  H    0.005730  -0.035795   0.335461  -0.002127  -0.004796   0.656078
     7  H   -0.004156  -0.038113   0.356515  -0.003198   0.005302  -0.037317
     8  C   -0.007858  -0.033443   0.368334   0.003685  -0.003962  -0.027736
     9  C    0.000522   0.004757  -0.044831  -0.000103   0.000024   0.000034
    10  H   -0.000656  -0.005485  -0.051880  -0.000058   0.005596  -0.001900
    11  H   -0.000021  -0.000096  -0.000419  -0.000008  -0.000003   0.003313
    12  H    0.000000  -0.000026  -0.006953   0.000003   0.000008   0.000074
    13  O    0.014712  -0.005351  -0.040122   0.000218  -0.000233   0.003456
    14  H    0.001238  -0.000272  -0.007792  -0.000047   0.000051   0.000209
    15  C   -0.000001  -0.000150   0.004385   0.000001   0.000001  -0.000107
    16  H    0.000000   0.000001  -0.000118  -0.000000   0.000000  -0.000005
    17  H   -0.000004   0.000000   0.000394   0.000000  -0.000000  -0.000015
    18  H    0.000000  -0.000000   0.000016   0.000000  -0.000001  -0.000003
    19  H    0.000000   0.000000  -0.000002   0.000000  -0.000000   0.000000
    20  C   -0.000000   0.000000   0.000001  -0.000000   0.000000  -0.000000
    21  C   -0.000000  -0.000000   0.000000  -0.000000  -0.000000  -0.000000
    22  H    0.000000   0.000000   0.000000  -0.000000   0.000000  -0.000000
    23  H   -0.000000  -0.000000  -0.000000   0.000000  -0.000000  -0.000000
    24  H    0.000000   0.000000  -0.000000  -0.000000   0.000000   0.000000
    25  H    0.000000   0.000000  -0.000000   0.000000   0.000000   0.000000
    26  C    0.000005  -0.000000  -0.000031   0.000000   0.000000   0.000001
    27  C   -0.000000   0.000000   0.000001  -0.000000  -0.000000  -0.000000
    28  H   -0.000036   0.000002   0.000240  -0.000000  -0.000000  -0.000015
    29  H   -0.000000   0.000000  -0.000000   0.000000  -0.000000  -0.000000
    30  H    0.000000  -0.000000   0.000000   0.000000  -0.000000  -0.000000
    31  O   -0.000000  -0.000000  -0.000001  -0.000000   0.000000   0.000000
    32  C    0.000005  -0.000003   0.000021  -0.000000   0.000000   0.000000
    33  O    0.000059  -0.000026  -0.002043  -0.000001  -0.000000   0.000017
    34  C   -0.000000   0.000000  -0.000000   0.000000  -0.000000  -0.000000
    35  H    0.000000  -0.000000   0.000000   0.000000   0.000000  -0.000000
    36  H    0.000000  -0.000000  -0.000000  -0.000000   0.000000   0.000000
    37  H    0.000000  -0.000000  -0.000001  -0.000000   0.000000   0.000000
    38  C    0.000002  -0.000002  -0.000011  -0.000000   0.000000   0.000000
    39  H   -0.000000   0.000000  -0.000000  -0.000000  -0.000000  -0.000000
    40  H    0.000044   0.000000   0.000054   0.000000  -0.000001  -0.000001
    41  H   -0.000000   0.000000   0.000000   0.000000   0.000000  -0.000000
               7          8          9         10         11         12
     1  H   -0.004156  -0.007858   0.000522  -0.000656  -0.000021   0.000000
     2  C   -0.038113  -0.033443   0.004757  -0.005485  -0.000096  -0.000026
     3  C    0.356515   0.368334  -0.044831  -0.051880  -0.000419  -0.006953
     4  H   -0.003198   0.003685  -0.000103  -0.000058  -0.000008   0.000003
     5  H    0.005302  -0.003962   0.000024   0.005596  -0.000003   0.000008
     6  H   -0.037317  -0.027736   0.000034  -0.001900   0.003313   0.000074
     7  H    0.614840  -0.031798  -0.008206   0.006393   0.000202   0.005405
     8  C   -0.031798   4.709479   0.351570   0.369880  -0.026925  -0.029056
     9  C   -0.008206   0.351570   5.090450  -0.063302   0.333851   0.350668
    10  H    0.006393   0.369880  -0.063302   0.674911   0.000051   0.006246
    11  H    0.000202  -0.026925   0.333851   0.000051   0.652957  -0.035740
    12  H    0.005405  -0.029056   0.350668   0.006246  -0.035740   0.620780
    13  O   -0.003709   0.266046  -0.050530  -0.045344   0.003517  -0.003948
    14  H    0.003662  -0.024606  -0.002075   0.006143  -0.000174   0.003494
    15  C    0.000038  -0.029615   0.370244  -0.004517  -0.036747  -0.042299
    16  H    0.000004   0.003610  -0.026001  -0.000016  -0.001672  -0.004438
    17  H    0.000006  -0.007061  -0.036425  -0.000305   0.005558  -0.003874
    18  H    0.000007  -0.003887  -0.032728   0.005226  -0.004912   0.005464
    19  H   -0.000004  -0.000031   0.000536   0.000002  -0.000067   0.004840
    20  C   -0.000000   0.000028  -0.001175  -0.000001   0.000022   0.000256
    21  C    0.000000  -0.000002   0.000034   0.000001   0.000002  -0.000064
    22  H   -0.000000  -0.000001   0.000008  -0.000000  -0.000000  -0.000010
    23  H    0.000000  -0.000000   0.000029   0.000000  -0.000001  -0.000023
    24  H   -0.000000  -0.000001  -0.000037  -0.000000   0.000001  -0.000023
    25  H   -0.000000  -0.000000  -0.000003  -0.000000   0.000000  -0.000002
    26  C   -0.000007  -0.000256  -0.000051  -0.000021  -0.000019  -0.000164
    27  C    0.000000   0.000001   0.000011  -0.000001  -0.000000   0.000004
    28  H   -0.000044   0.000094  -0.000481   0.000077   0.000162   0.001402
    29  H    0.000000  -0.000001  -0.000003   0.000000   0.000000   0.000004
    30  H   -0.000000   0.000000  -0.000000  -0.000000   0.000000  -0.000000
    31  O    0.000010  -0.000001   0.000020   0.000000   0.000000  -0.000141
    32  C    0.000215  -0.000006  -0.000024   0.000003  -0.000002   0.000725
    33  O    0.005469   0.001156  -0.001815  -0.000026   0.000021   0.004754
    34  C   -0.000019   0.000001  -0.000004  -0.000000   0.000000   0.000026
    35  H   -0.000000  -0.000000   0.000001   0.000000  -0.000000  -0.000006
    36  H    0.000000   0.000000  -0.000000   0.000000   0.000000   0.000000
    37  H    0.000012  -0.000000   0.000000   0.000000  -0.000000  -0.000001
    38  C    0.000001   0.000192  -0.000022   0.000006   0.000000   0.000002
    39  H   -0.000000  -0.000004   0.000000  -0.000000   0.000000   0.000000
    40  H   -0.000008  -0.000347   0.000073  -0.000070  -0.000001  -0.000016
    41  H   -0.000000  -0.000002   0.000000   0.000000  -0.000000  -0.000000
              13         14         15         16         17         18
     1  H    0.014712   0.001238  -0.000001   0.000000  -0.000004   0.000000
     2  C   -0.005351  -0.000272  -0.000150   0.000001   0.000000  -0.000000
     3  C   -0.040122  -0.007792   0.004385  -0.000118   0.000394   0.000016
     4  H    0.000218  -0.000047   0.000001  -0.000000   0.000000   0.000000
     5  H   -0.000233   0.000051   0.000001   0.000000  -0.000000  -0.000001
     6  H    0.003456   0.000209  -0.000107  -0.000005  -0.000015  -0.000003
     7  H   -0.003709   0.003662   0.000038   0.000004   0.000006   0.000007
     8  C    0.266046  -0.024606  -0.029615   0.003610  -0.007061  -0.003887
     9  C   -0.050530  -0.002075   0.370244  -0.026001  -0.036425  -0.032728
    10  H   -0.045344   0.006143  -0.004517  -0.000016  -0.000305   0.005226
    11  H    0.003517  -0.000174  -0.036747  -0.001672   0.005558  -0.004912
    12  H   -0.003948   0.003494  -0.042299  -0.004438  -0.003874   0.005464
    13  O    8.282574   0.183098  -0.003740   0.000151   0.009865  -0.000158
    14  H    0.183098   0.377484  -0.000199  -0.000008  -0.000863   0.000019
    15  C   -0.003740  -0.000199   5.063554   0.359274   0.370258   0.365734
    16  H    0.000151  -0.000008   0.359274   0.611468  -0.033667  -0.032945
    17  H    0.009865  -0.000863   0.370258  -0.033667   0.572149  -0.030497
    18  H   -0.000158   0.000019   0.365734  -0.032945  -0.030497   0.604286
    19  H   -0.000030  -0.000018   0.001727   0.002640  -0.000359  -0.000014
    20  C    0.000005  -0.000001  -0.000874   0.000192  -0.000175   0.000032
    21  C    0.000135  -0.000072  -0.000235  -0.000120   0.000062   0.000005
    22  H   -0.000000   0.000006   0.000016  -0.000001   0.000011  -0.000000
    23  H    0.000000   0.000000  -0.000036   0.000061  -0.000005  -0.000000
    24  H   -0.000010   0.000024   0.000670   0.000327   0.001781  -0.000028
    25  H   -0.000001  -0.000001   0.000012   0.000005   0.000002  -0.000000
    26  C   -0.008953   0.001509  -0.000413  -0.000041  -0.001125   0.000028
    27  C    0.000251  -0.000284  -0.000045   0.000001   0.000004   0.000000
    28  H    0.028388  -0.003253  -0.000969  -0.000083   0.005554  -0.000026
    29  H   -0.000001   0.000021  -0.000013  -0.000004   0.000581  -0.000001
    30  H   -0.000001  -0.000013  -0.000000  -0.000000  -0.000002   0.000000
    31  O    0.000117  -0.000884   0.000009   0.000000   0.000022  -0.000000
    32  C    0.000154  -0.001646  -0.000002  -0.000001  -0.000020   0.000000
    33  O   -0.013635   0.049740  -0.000007  -0.000000  -0.000017  -0.000001
    34  C   -0.000025   0.000644   0.000000   0.000000  -0.000000  -0.000000
    35  H    0.000000  -0.000006  -0.000000  -0.000000   0.000000   0.000000
    36  H    0.000000  -0.000023   0.000000  -0.000000   0.000000   0.000000
    37  H    0.000000  -0.000014   0.000000  -0.000000   0.000000   0.000000
    38  C   -0.005620   0.002616  -0.000001  -0.000000  -0.000015   0.000000
    39  H   -0.000009   0.000207  -0.000000  -0.000000   0.000003   0.000000
    40  H    0.018382  -0.003055  -0.000011   0.000001   0.000054  -0.000000
    41  H    0.000058  -0.000018   0.000000   0.000000  -0.000001   0.000000
              19         20         21         22         23         24
     1  H    0.000000  -0.000000  -0.000000   0.000000  -0.000000   0.000000
     2  C    0.000000   0.000000  -0.000000   0.000000  -0.000000   0.000000
     3  C   -0.000002   0.000001   0.000000   0.000000  -0.000000  -0.000000
     4  H    0.000000  -0.000000  -0.000000  -0.000000   0.000000  -0.000000
     5  H   -0.000000   0.000000  -0.000000   0.000000  -0.000000   0.000000
     6  H    0.000000  -0.000000  -0.000000  -0.000000  -0.000000   0.000000
     7  H   -0.000004  -0.000000   0.000000  -0.000000   0.000000  -0.000000
     8  C   -0.000031   0.000028  -0.000002  -0.000001  -0.000000  -0.000001
     9  C    0.000536  -0.001175   0.000034   0.000008   0.000029  -0.000037
    10  H    0.000002  -0.000001   0.000001  -0.000000   0.000000  -0.000000
    11  H   -0.000067   0.000022   0.000002  -0.000000  -0.000001   0.000001
    12  H    0.004840   0.000256  -0.000064  -0.000010  -0.000023  -0.000023
    13  O   -0.000030   0.000005   0.000135  -0.000000   0.000000  -0.000010
    14  H   -0.000018  -0.000001  -0.000072   0.000006   0.000000   0.000024
    15  C    0.001727  -0.000874  -0.000235   0.000016  -0.000036   0.000670
    16  H    0.002640   0.000192  -0.000120  -0.000001   0.000061   0.000327
    17  H   -0.000359  -0.000175   0.000062   0.000011  -0.000005   0.001781
    18  H   -0.000014   0.000032   0.000005  -0.000000  -0.000000  -0.000028
    19  H    0.562600   0.370183  -0.034280  -0.031948  -0.029674  -0.004547
    20  C    0.370183   5.064971   0.370571   0.368620   0.362623  -0.033067
    21  C   -0.034280   0.370571   4.994951  -0.033903  -0.024199   0.353491
    22  H   -0.031948   0.368620  -0.033903   0.589985  -0.031402   0.005417
    23  H   -0.029674   0.362623  -0.024199  -0.031402   0.592375  -0.002770
    24  H   -0.004547  -0.033067   0.353491   0.005417  -0.002770   0.614347
    25  H    0.005084  -0.038275   0.355807  -0.003862  -0.002525  -0.036480
    26  C   -0.003393  -0.030785   0.371558  -0.008327   0.003624  -0.031633
    27  C    0.000049   0.003882  -0.039230   0.000189  -0.000111  -0.000956
    28  H    0.003653  -0.004808  -0.042087  -0.000120   0.000049  -0.002877
    29  H   -0.000002   0.000035  -0.000711  -0.000004  -0.000004   0.003048
    30  H    0.000006  -0.000046  -0.006854   0.000009   0.000002  -0.000101
    31  O   -0.000243  -0.003487  -0.042761   0.008721   0.000169   0.003135
    32  C    0.000076   0.001685   0.001032   0.001130  -0.000026   0.000000
    33  O   -0.000135  -0.000080   0.000471  -0.000195   0.000001   0.000004
    34  C   -0.000007  -0.000204  -0.000367   0.000091   0.000002   0.000008
    35  H    0.000002   0.000027   0.000045   0.000819  -0.000003  -0.000000
    36  H   -0.000000   0.000007  -0.000013  -0.000008  -0.000000  -0.000000
    37  H    0.000000   0.000001   0.000002  -0.000001  -0.000000  -0.000000
    38  C    0.000001  -0.000140   0.003902   0.000000   0.000001  -0.000002
    39  H    0.000000   0.000002   0.000178  -0.000001   0.000000  -0.000001
    40  H   -0.000001  -0.000000   0.000052   0.000000   0.000000  -0.000005
    41  H    0.000000   0.000001  -0.000121   0.000000  -0.000000  -0.000000
              25         26         27         28         29         30
     1  H    0.000000   0.000005  -0.000000  -0.000036  -0.000000   0.000000
     2  C    0.000000  -0.000000   0.000000   0.000002   0.000000  -0.000000
     3  C   -0.000000  -0.000031   0.000001   0.000240  -0.000000   0.000000
     4  H    0.000000   0.000000  -0.000000  -0.000000   0.000000   0.000000
     5  H    0.000000   0.000000  -0.000000  -0.000000  -0.000000  -0.000000
     6  H    0.000000   0.000001  -0.000000  -0.000015  -0.000000  -0.000000
     7  H   -0.000000  -0.000007   0.000000  -0.000044   0.000000  -0.000000
     8  C   -0.000000  -0.000256   0.000001   0.000094  -0.000001   0.000000
     9  C   -0.000003  -0.000051   0.000011  -0.000481  -0.000003  -0.000000
    10  H   -0.000000  -0.000021  -0.000001   0.000077   0.000000  -0.000000
    11  H    0.000000  -0.000019  -0.000000   0.000162   0.000000   0.000000
    12  H   -0.000002  -0.000164   0.000004   0.001402   0.000004  -0.000000
    13  O   -0.000001  -0.008953   0.000251   0.028388  -0.000001  -0.000001
    14  H   -0.000001   0.001509  -0.000284  -0.003253   0.000021  -0.000013
    15  C    0.000012  -0.000413  -0.000045  -0.000969  -0.000013  -0.000000
    16  H    0.000005  -0.000041   0.000001  -0.000083  -0.000004  -0.000000
    17  H    0.000002  -0.001125   0.000004   0.005554   0.000581  -0.000002
    18  H   -0.000000   0.000028   0.000000  -0.000026  -0.000001   0.000000
    19  H    0.005084  -0.003393   0.000049   0.003653  -0.000002   0.000006
    20  C   -0.038275  -0.030785   0.003882  -0.004808   0.000035  -0.000046
    21  C    0.355807   0.371558  -0.039230  -0.042087  -0.000711  -0.006854
    22  H   -0.003862  -0.008327   0.000189  -0.000120  -0.000004   0.000009
    23  H   -0.002525   0.003624  -0.000111   0.000049  -0.000004   0.000002
    24  H   -0.036480  -0.031633  -0.000956  -0.002877   0.003048  -0.000101
    25  H    0.624133  -0.031727  -0.006512   0.005509  -0.000044   0.006307
    26  C   -0.031727   4.894714   0.385115   0.314124  -0.035018  -0.033461
    27  C   -0.006512   0.385115   4.975732  -0.048718   0.354153   0.357327
    28  H    0.005509   0.314124  -0.048718   0.614707  -0.001257   0.006097
    29  H   -0.000044  -0.035018   0.354153  -0.001257   0.620342  -0.036824
    30  H    0.006307  -0.033461   0.357327   0.006097  -0.036824   0.627573
    31  O   -0.001138   0.153233  -0.037585  -0.031282   0.003163  -0.001088
    32  C   -0.000271   0.000163  -0.001744  -0.006327   0.000022  -0.000291
    33  O   -0.000008  -0.003878  -0.000307   0.009621  -0.000004  -0.000011
    34  C    0.000005   0.005575  -0.000288   0.000395   0.000006  -0.000007
    35  H    0.000005  -0.000233  -0.000012  -0.000017   0.000000   0.000001
    36  H    0.000004  -0.000187   0.000038   0.000011   0.000000   0.000015
    37  H    0.000000  -0.000166   0.000008   0.000014  -0.000000   0.000001
    38  C   -0.000023  -0.030550   0.373121  -0.005056  -0.033201  -0.038189
    39  H    0.000002  -0.007988  -0.034132  -0.000257   0.005428  -0.003713
    40  H    0.000006  -0.003668  -0.031042   0.003479  -0.004419   0.004720
    41  H    0.000001   0.003884  -0.024900   0.000116  -0.003010  -0.002950
              31         32         33         34         35         36
     1  H   -0.000000   0.000005   0.000059  -0.000000   0.000000   0.000000
     2  C   -0.000000  -0.000003  -0.000026   0.000000  -0.000000  -0.000000
     3  C   -0.000001   0.000021  -0.002043  -0.000000   0.000000  -0.000000
     4  H   -0.000000  -0.000000  -0.000001   0.000000   0.000000  -0.000000
     5  H    0.000000   0.000000  -0.000000  -0.000000   0.000000   0.000000
     6  H    0.000000   0.000000   0.000017  -0.000000  -0.000000   0.000000
     7  H    0.000010   0.000215   0.005469  -0.000019  -0.000000   0.000000
     8  C   -0.000001  -0.000006   0.001156   0.000001  -0.000000   0.000000
     9  C    0.000020  -0.000024  -0.001815  -0.000004   0.000001  -0.000000
    10  H    0.000000   0.000003  -0.000026  -0.000000   0.000000   0.000000
    11  H    0.000000  -0.000002   0.000021   0.000000  -0.000000   0.000000
    12  H   -0.000141   0.000725   0.004754   0.000026  -0.000006   0.000000
    13  O    0.000117   0.000154  -0.013635  -0.000025   0.000000   0.000000
    14  H   -0.000884  -0.001646   0.049740   0.000644  -0.000006  -0.000023
    15  C    0.000009  -0.000002  -0.000007   0.000000  -0.000000   0.000000
    16  H    0.000000  -0.000001  -0.000000   0.000000  -0.000000  -0.000000
    17  H    0.000022  -0.000020  -0.000017  -0.000000   0.000000   0.000000
    18  H   -0.000000   0.000000  -0.000001  -0.000000   0.000000   0.000000
    19  H   -0.000243   0.000076  -0.000135  -0.000007   0.000002  -0.000000
    20  C   -0.003487   0.001685  -0.000080  -0.000204   0.000027   0.000007
    21  C   -0.042761   0.001032   0.000471  -0.000367   0.000045  -0.000013
    22  H    0.008721   0.001130  -0.000195   0.000091   0.000819  -0.000008
    23  H    0.000169  -0.000026   0.000001   0.000002  -0.000003  -0.000000
    24  H    0.003135   0.000000   0.000004   0.000008  -0.000000  -0.000000
    25  H   -0.001138  -0.000271  -0.000008   0.000005   0.000005   0.000004
    26  C    0.153233   0.000163  -0.003878   0.005575  -0.000233  -0.000187
    27  C   -0.037585  -0.001744  -0.000307  -0.000288  -0.000012   0.000038
    28  H   -0.031282  -0.006327   0.009621   0.000395  -0.000017   0.000011
    29  H    0.003163   0.000022  -0.000004   0.000006   0.000000   0.000000
    30  H   -0.001088  -0.000291  -0.000011  -0.000007   0.000001   0.000015
    31  O    8.283456   0.234121  -0.067210  -0.094118   0.001299   0.003712
    32  C    0.234121   4.394478   0.503647   0.350582  -0.019249  -0.018316
    33  O   -0.067210   0.503647   8.031529  -0.069591   0.000600   0.001486
    34  C   -0.094118   0.350582  -0.069591   5.242162   0.352813   0.347716
    35  H    0.001299  -0.019249   0.000600   0.352813   0.539666  -0.024598
    36  H    0.003712  -0.018316   0.001486   0.347716  -0.024598   0.543847
    37  H    0.003476  -0.020956   0.004114   0.350198  -0.023107  -0.023609
    38  C   -0.003189   0.002396   0.000341  -0.000079   0.000002   0.000008
    39  H    0.005113   0.003687  -0.000263   0.000026   0.000005   0.000160
    40  H   -0.000164   0.000061  -0.000260  -0.000003  -0.000000   0.000000
    41  H    0.000022  -0.000033   0.000027   0.000002   0.000000  -0.000002
              37         38         39         40         41
     1  H    0.000000   0.000002  -0.000000   0.000044  -0.000000
     2  C   -0.000000  -0.000002   0.000000   0.000000   0.000000
     3  C   -0.000001  -0.000011  -0.000000   0.000054   0.000000
     4  H   -0.000000  -0.000000  -0.000000   0.000000   0.000000
     5  H    0.000000   0.000000  -0.000000  -0.000001   0.000000
     6  H    0.000000   0.000000  -0.000000  -0.000001  -0.000000
     7  H    0.000012   0.000001  -0.000000  -0.000008  -0.000000
     8  C   -0.000000   0.000192  -0.000004  -0.000347  -0.000002
     9  C    0.000000  -0.000022   0.000000   0.000073   0.000000
    10  H    0.000000   0.000006  -0.000000  -0.000070   0.000000
    11  H   -0.000000   0.000000   0.000000  -0.000001  -0.000000
    12  H   -0.000001   0.000002   0.000000  -0.000016  -0.000000
    13  O    0.000000  -0.005620  -0.000009   0.018382   0.000058
    14  H   -0.000014   0.002616   0.000207  -0.003055  -0.000018
    15  C    0.000000  -0.000001  -0.000000  -0.000011   0.000000
    16  H   -0.000000  -0.000000  -0.000000   0.000001   0.000000
    17  H    0.000000  -0.000015   0.000003   0.000054  -0.000001
    18  H    0.000000   0.000000   0.000000  -0.000000   0.000000
    19  H    0.000000   0.000001   0.000000  -0.000001   0.000000
    20  C    0.000001  -0.000140   0.000002  -0.000000   0.000001
    21  C    0.000002   0.003902   0.000178   0.000052  -0.000121
    22  H   -0.000001   0.000000  -0.000001   0.000000   0.000000
    23  H   -0.000000   0.000001   0.000000   0.000000  -0.000000
    24  H   -0.000000  -0.000002  -0.000001  -0.000005  -0.000000
    25  H    0.000000  -0.000023   0.000002   0.000006   0.000001
    26  C   -0.000166  -0.030550  -0.007988  -0.003668   0.003884
    27  C    0.000008   0.373121  -0.034132  -0.031042  -0.024900
    28  H    0.000014  -0.005056  -0.000257   0.003479   0.000116
    29  H   -0.000000  -0.033201   0.005428  -0.004419  -0.003010
[...]
 1,-0.01495572,-0.00426733,0.00081980,0.00220144,0.00130794,-0.11912487
 ,-0.17294245,-0.05346772,-0.00705359,-0.00838281,-0.00390862,0.0096627
 3,0.01223735,0.00371355,0.13215881,0.18582788,-0.00000303,-0.00000507,
 -0.00002434,0.00001215,-0.00000076,0.00002023,0.00000795,-0.00001267,-
 0.00001549,0.00000982,0.00000182,0.00000237,-0.00001015,0.00001024,-0.
 00000221,-0.00001130,0.00001491,-0.00000180,0.00000422,-0.00000667,0.0
 0002452,0.00001017,-0.00003698,0.00002607,-0.00000340,0.00000171,-0.00
 000224,-0.00000516,0.00000802,-0.00000384,0.00000121,0.00000874,0.0000
 0076,0.00000270,-0.00000992,0.00000383,0.00000031,0.00010428,0.0000307
 4,0.00005623,-0.00010429,-0.00009987,-0.00000562,0.00000511,-0.0000252
 9,0.00000253,0.00000849,-0.00000074,-0.00000327,-0.00000255,0.00001671
 ,0.00000773,-0.00000310,0.00000512,-0.00000268,0.00001800,0.00001669,-
 0.00000739,-0.00005819,-0.00009064,0.00015744,-0.00022753,-0.00027948,
 0.00000928,-0.00000143,0.00003093,-0.00000239,0.00000733,0.00003148,-0
 .00007028,-0.00012056,0.00006766,-0.00001590,0.00001309,0.00000804,-0.
 00052468,0.00011655,0.00069638,0.00001197,-0.00012224,0.00003383,0.000
 02260,-0.00012949,-0.00005130,-0.00000149,0.00001816,-0.00007075,0.000
 00257,0.00003192,-0.00000492,0.00208637,-0.00438474,-0.00203440,-0.013
 79573,-0.01090601,-0.00659278,-0.00003952,0.00186806,0.00052437,-0.051
 31848,-0.05262206,-0.06897330,0.01712277,0.01808736,0.00989976,-0.0095
 8683,-0.01246498,-0.00501934,0.05591599,0.06091856,0.07185405,-0.00001
 705,-0.00008229,-0.00000962,-0.00004050,0.00003644,0.00001374,0.000133
 82,-0.00016572,0.00005804,0.00004458,0.00001974,0.00003265,-0.00000911
 ,-0.00000689,-0.00000094,0.00008695,0.00005466,0.00009037,-0.00000484,
 0.00002125,0.00002425,-0.00034834,0.00039913,-0.00025281,0.00020975,-0
 .00005138,0.00003358,0.00008314,-0.00006410,0.00005136,-0.00002606,-0.
 00009924,0.00008927,-0.00002502,0.00002609,0.00004730,0.00077137,-0.00
 044333,0.00093825,-0.00005544,-0.00028259,-0.00110940,-0.00004696,0.00
 000997,0.00006927,0.00000374,-0.00008695,0.00005320,0.00008933,0.00007
 069,-0.00006847,-0.00003077,0.00001377,-0.00001028,-0.00002723,-0.0000
 2774,0.00010247,0.00088775,0.00062136,-0.00037145,-0.00088650,-0.00009
 297,-0.00260507,-0.00001758,-0.00004411,-0.00004977,-0.00005980,0.0001
 0164,-0.00037516,-0.00005490,-0.00032790,-0.00002850,0.00046147,0.0000
 8237,-0.00011627,0.00455441,0.00667297,0.00171688,-0.10585266,-0.03977
 875,0.01899361,0.00088163,0.00098091,-0.00086042,0.00306789,0.00407681
 ,-0.00283553,-0.01555847,-0.02603549,0.01381723,-0.00043414,-0.0011431
 3,-0.00039978,0.00148850,0.00063784,0.00056866,-0.00096744,0.00028444,
 0.00028162,-0.00018783,-0.00002472,-0.00007030,-0.00000759,-0.00000583
 ,-0.00000731,-0.00003171,-0.00001914,0.00002883,0.00002429,-0.00006033
 ,-0.00001809,0.52758430,0.00000092,0.00002290,0.00001412,0.00002345,-0
 .00003091,0.00000935,0.00000903,-0.00002767,0.00007292,-0.00002180,-0.
 00000470,-0.00001514,0.00000753,-0.00000159,-0.00000319,0.00001341,0.0
 0001240,-0.00000327,0.00000142,-0.00000277,-0.00002095,0.00019469,0.00
 026736,0.00005662,-0.00005313,0.00002192,-0.00004691,-0.00002557,-0.00
 000097,-0.00001214,-0.00000942,0.00002367,-0.00002228,0.00000647,0.000
 02350,0.00002217,-0.00001520,-0.00008702,0.00002579,-0.00001618,0.0001
 4195,0.00045816,0.00001422,0.00000270,0.00003062,-0.00000011,-0.000006
 28,-0.00000290,-0.00001470,-0.00002806,-0.00004810,-0.00002859,0.00001
 150,-0.00001120,-0.00001121,0.00000078,-0.00004808,-0.00022450,0.00051
 422,-0.00013868,0.00030735,0.00027177,-0.00052754,0.00004499,-0.000081
 57,0.00003988,-0.00000024,0.00002954,-0.00013855,-0.00004961,0.0002981
 8,-0.00008714,-0.00019324,-0.00008902,0.00002341,-0.00110276,-0.003371
 43,0.00910341,-0.03933008,-0.13259955,0.02727175,-0.00009874,0.0000799
 2,-0.00048487,-0.01557873,-0.02180075,0.01289422,0.00202244,0.00391368
 ,-0.00226310,-0.00004149,-0.00172884,-0.00075504,0.00119685,0.00121248
 ,-0.00115045,-0.00059965,-0.00061067,0.00062431,-0.00016686,-0.0002664
 5,-0.00003536,0.00001569,-0.00001280,0.00007444,0.00017414,-0.00006907
 ,-0.00015254,0.00001970,-0.00006754,-0.00003981,-0.04488213,0.48645865
 ,0.00002156,0.00001170,0.00000885,-0.00000556,0.00001214,-0.00004333,-
 0.00006900,0.00009781,-0.00005496,-0.00001395,-0.00001372,0.00000471,-
 0.00000169,-0.00000233,0.00000417,-0.00003616,-0.00004928,-0.00002869,
 0.00000196,-0.00000465,0.00000142,0.00023402,-0.00029460,0.00025524,-0
 .00003563,-0.00004745,-0.00000645,-0.00008432,0.00004251,-0.00003442,0
 .00001451,0.00004028,-0.00002069,0.00001971,0.00002896,0.00001819,-0.0
 0128099,0.00074488,-0.00061413,0.00025311,0.00010329,0.00065933,-0.000
 03616,0.00003334,-0.00006398,0.00001817,-0.00002553,0.00002709,0.00002
 512,-0.00003037,-0.00001494,-0.00002026,0.00000022,0.00001161,-0.00005
 713,-0.00001831,0.00004863,0.00105219,0.00168409,0.00006872,-0.0019592
 2,-0.00123754,-0.00523948,0.00002209,-0.00007445,0.00007123,-0.0001398
 5,0.00013612,-0.00067945,-0.00023522,0.00028038,0.00025227,0.00016225,
 -0.00007691,-0.00007804,0.01686912,0.02645784,-0.01827293,0.01959492,0
 .02778330,-0.08928789,0.00063991,-0.00008191,0.00137869,-0.00826381,-0
 .01107284,0.00702699,-0.00060838,-0.00168037,0.00069704,0.00033059,0.0
 0131272,0.00121046,-0.00054395,0.00027833,-0.00050191,0.00041087,-0.00
 020874,-0.00049859,-0.00002971,0.00006235,0.00003528,0.00002423,-0.000
 02220,0.00002341,0.00010165,-0.00005000,-0.00004165,-0.00000246,0.0000
 0403,-0.00000705,0.02637860,0.03044819,0.53671003,-0.00000170,0.000014
 74,0.00002896,-0.00002339,0.00000623,-0.00004014,-0.00004070,0.0000585
 5,-0.00001452,-0.00000580,-0.00000816,-0.00000052,0.00002279,-0.000011
 34,0.00000610,-0.00001271,-0.00002916,-0.00001329,0.00000240,-0.000003
 10,-0.00002194,0.00008656,-0.00014313,-0.00004130,-0.00002965,0.000002
 98,0.00000950,0.00002163,-0.00001256,0.00001042,0.00000200,0.00000634,
 -0.00001494,0.00000716,-0.00000181,-0.00001628,-0.00025968,-0.00002795
 ,-0.00020075,-0.00017758,0.00032747,-0.00008081,0.00002429,-0.00000175
 ,0.00000915,-0.00000682,0.00000950,-0.00001853,-0.00002769,-0.00001789
 ,0.00001358,0.00000775,-0.00000841,0.00000102,-0.00000070,0.00000438,0
 .00000745,-0.00001271,0.00007986,0.00002740,-0.00002509,-0.00001839,-0
 .00011741,0.00001507,-0.00000705,0.00003060,-0.00000845,-0.00000395,-0
 .00000970,-0.00002716,0.00009661,-0.00000988,-0.00001697,-0.00001829,-
 0.00001400,0.00044073,0.00037380,-0.00041658,0.00320253,-0.01535355,-0
 .00925284,-0.00002696,0.00006638,0.00011371,-0.00105155,-0.00308820,0.
 00190505,0.00047568,0.00025221,-0.00074888,-0.00055075,-0.00017724,-0.
 00011686,0.00168860,0.00051705,0.00002353,-0.00080211,-0.00032285,0.00
 062502,0.00000717,-0.00004363,-0.00004651,-0.00002261,-0.00000197,0.00
 000188,-0.00003286,0.00007834,0.00001455,-0.00001876,-0.00000177,-0.00
 004300,-0.05684040,0.04208137,0.02310718,0.05664407,0.00000286,-0.0000
 0743,-0.00002196,0.00001346,0.00000691,0.00002612,0.00004517,-0.000038
 17,-0.00003183,0.00000764,0.00000717,-0.00000016,-0.00001850,0.0000064
 8,0.00000153,-0.00000457,0.00001852,0.00000729,0.00000268,0.00000611,0
 .00003376,-0.00002652,0.00001246,0.00005580,0.00003487,-0.00003496,-0.
 00002507,-0.00002495,0.00001781,-0.00000485,0.00000684,0.00001661,0.00
 001741,-0.00001304,-0.00000624,0.00002170,0.00010415,0.00012279,0.0001
 4251,0.00026528,-0.00032820,-0.00010572,-0.00005452,0.00002894,-0.0000
 5863,0.00000919,0.00000371,0.00001124,0.00000839,-0.00000823,0.0000094
 4,0.00000617,0.00000607,0.00001105,0.00001166,-0.00000935,0.00001661,-
 0.00002499,0.00002294,-0.00003679,0.00000136,-0.00001855,0.00016895,-0
 .00002240,0.00002195,0.00013152,-0.00000720,0.00002086,0.00004155,-0.0
 0000656,0.00028503,0.00002352,0.00001958,-0.00000528,-0.00005020,0.000
 39991,-0.00180238,-0.00243296,0.00476898,-0.02192583,-0.01081893,-0.00
 000742,-0.00002708,0.00017620,-0.00318909,-0.00264649,0.00266310,-0.00
 034729,0.00071699,-0.00003541,-0.00012231,0.00174450,-0.00028518,-0.00
 016753,0.00057026,0.00139408,-0.00001058,0.00017633,-0.00061884,0.0001
 2532,0.00009105,0.00006958,-0.00000155,-0.00001627,-0.00003200,-0.0000
 6609,0.00002510,0.00008386,-0.00001897,0.00002050,0.00001086,0.0417612
 7,-0.22681776,-0.10370682,-0.04323487,0.24986458,-0.00000740,-0.000009
 89,-0.00000394,0.00001136,-0.00000841,0.00001454,-0.00001425,0.0000005
 5,0.00001927,0.00000606,0.00000750,0.00000296,-0.00000068,0.00000272,-
 0.00000588,0.00001201,0.00000442,-0.00000176,-0.00000164,-0.00000307,-
 0.00001073,-0.00005829,0.00001420,-0.00006130,-0.00001280,0.00001300,0
 .00002042,0.00001285,-0.00000717,0.00000187,0.00000856,-0.00000916,0.0
 0000339,0.00000404,-0.00000042,-0.00001548,0.00015235,-0.00003537,0.00
 001405,-0.00015675,0.00001938,0.00002811,0.00000669,-0.00000138,-0.000
 00404,-0.00000235,0.00000200,0.00000224,0.00000772,0.00000459,0.000007
 26,0.00000277,-0.00000269,-0.00000410,-0.00000028,0.00000504,-0.000002
 52,-0.00002981,-0.00011973,-0.00004655,0.00008991,0.00002543,0.0001150
 4,0.00000426,0.00003158,-0.00004376,0.00000237,-0.00002139,0.00003544,
 -0.00000013,-0.00011719,-0.00000230,-0.00002484,-0.00001004,0.00002515
 ,-0.00048207,0.00063906,0.00051050,-0.00335142,0.01203408,0.00720307,-
 0.00002590,-0.00002942,-0.00005057,0.00141129,0.00274902,-0.00070164,-
 0.00036813,-0.00071361,0.00034485,0.00035929,0.00057679,-0.00062647,-0
 .00051415,-0.00029262,-0.00180464,0.00036796,0.00007755,0.00006479,0.0
 0003543,0.00004075,0.00006090,-0.00000489,0.00002611,0.00001686,-0.000
 02123,-0.00000048,0.00002288,0.00000332,0.00002760,0.00003059,0.023086
 91,-0.10496652,-0.10622371,-0.02720119,0.11404276,0.11484167,0.0000092
 0,-0.00000914,-0.00000692,0.00000387,0.00000903,0.00001455,0.00001407,
 -0.00003436,0.00000881,0.00001057,0.00000474,0.00000627,-0.00000410,0.
 00000124,-0.00000350,0.00000428,0.00000591,0.00000222,-0.00000185,-0.0
 0000171,0.00000509,-0.00098805,0.00020627,-0.00005888,0.00015634,-0.00
 004415,0.00011374,-0.00001317,0.00000881,-0.00004447,-0.00002238,-0.00
 005488,0.00003468,0.00000387,0.00000032,-0.00000201,-0.00150017,0.0004
 9272,-0.00189075,0.00031164,0.00006458,-0.00008232,0.00002366,-0.00000
 770,0.00004508,-0.00001065,0.00000275,-0.00001598,-0.00000411,-0.00000
 837,-0.00000369,0.00000134,-0.00000095,-0.00000579,0.00000210,-0.00000
 965,0.00002658,0.00005145,-0.00001939,0.00000595,0.00020859,-0.0000728
 3,0.00001342,-0.00000491,-0.00000067,0.00000562,-0.00000494,-0.0000031
 7,0.00000514,-0.00001733,-0.00000076,-0.00000248,0.00012568,0.00011623
 ,-0.00010689,0.00020783,0.00052054,-0.00067311,-0.01586044,0.00165720,
 -0.00009067,0.00034256,-0.00020970,0.00079521,0.00052296,-0.00024722,-
 0.00031189,0.00005081,-0.00267962,0.00117639,0.00030282,0.00016717,0.0
 0020055,-0.00086053,-0.00015480,0.00004523,0.00036501,-0.00000085,-0.0
 0050282,0.00003670,-0.00000473,0.00001693,0.00000627,-0.00000177,-0.00
 000477,0.00001417,-0.00002398,-0.00001548,0.00000189,0.00000692,0.0000
 1151,-0.29450662,0.04754740,-0.01062261,-0.00358545,0.00089596,-0.0002
 7223,0.32034811,0.00002446,0.00002791,0.00001637,-0.00003900,0.0000254
 9,-0.00008322,-0.00015087,0.00020062,-0.00013583,-0.00000408,-0.000023
 01,0.00001502,0.00001330,-0.00000828,0.00001327,-0.00007428,-0.0000935
 2,-0.00004901,0.00000293,-0.00000374,-0.00001104,0.00013190,-0.0008327
 6,0.00007624,0.00001696,-0.00001023,0.00005672,0.00001023,0.00001258,0
 .00003249,-0.00001733,-0.00000963,-0.00001996,0.00001193,-0.00001007,-
 0.00001268,0.00054454,-0.00017466,0.00043507,-0.00026819,0.00075059,-0
 .00049897,0.00006621,-0.00001561,0.00004241,-0.00001532,0.00003094,-0.
 00004449,-0.00005226,-0.00002462,0.00001999,0.00000002,-0.00000238,-0.
 00000397,0.00001775,-0.00000600,0.00005196,0.00009978,0.00000065,-0.00
 003441,-0.00007495,-0.00005423,-0.00010812,0.00000424,0.00000331,0.000
 00375,-0.00000520,-0.00000475,-0.00000428,-0.00002136,-0.00003460,-0.0
 0001140,0.00019558,0.00003773,-0.00004656,-0.00036934,0.00090434,-0.00
 088436,-0.02698049,0.00425500,-0.00114546,0.00023038,-0.00006897,0.000
 65006,0.00007576,0.00081752,-0.00067894,-0.00303644,-0.00379021,0.0028
 0065,0.00001305,0.00003833,-0.00026493,0.00054996,0.00000476,0.0000820
 4,-0.00015449,-0.00010810,0.00035529,0.00001178,0.00002150,0.00001091,
 -0.00001399,0.00000535,-0.00000855,-0.00003749,0.00002827,0.00003146,-
 0.00000523,0.00000386,-0.00001403,0.04919400,-0.05692414,0.00123551,0.
 02687545,-0.00448969,0.00266238,-0.04943517,0.06111117,-0.00003408,-0.
 00004022,0.00001662,-0.00002891,0.00001083,0.00004093,0.00015611,-0.00
 019909,0.00012692,0.00003536,0.00002573,0.00000435,0.00002685,-0.00001
 780,-0.00000508,0.00008948,0.00008393,0.00008433,-0.00000172,0.0000207
 2,-0.00001404,-0.00108187,0.00085279,-0.00059677,0.00019351,-0.0000348
 1,0.00007605,0.00014402,-0.00009433,0.00005980,-0.00002324,-0.00009189
 ,0.00008737,-0.00002074,0.00000642,-0.00002029,0.00036399,-0.00075867,
 -0.00071300,-0.00093113,0.00013235,-0.00183373,-0.00002019,0.00001429,
 0.00003198,-0.00000834,-0.00004884,0.00001416,0.00002589,0.00005087,0.
 00000265,0.00002359,-0.00001754,0.00000099,-0.00002418,0.00001911,-0.0
 0004048,-0.00004312,-0.00001413,0.00000808,-0.00003686,0.00010241,-0.0
 0003233,-0.00000107,0.00000379,-0.00000726,-0.00000642,-0.00000683,0.0
 0000888,0.00000962,-0.00003103,0.00001009,-0.00016821,-0.00005109,0.00
 000386,0.00154188,-0.00056258,0.00099044,0.01376383,-0.00267229,-0.000
 29794,-0.00010531,0.00030745,-0.00066765,-0.00071261,-0.00017721,0.000
 29815,0.00152920,0.00240936,-0.00041704,-0.00062698,-0.00013926,-0.000
 58980,0.00129961,0.00016998,0.00011936,-0.00075731,0.00004509,0.000499
 20,-0.00007585,0.00000729,-0.00000476,-0.00001383,0.00001132,0.0000048
 9,-0.00004828,0.00004859,0.00002956,-0.00000094,-0.00000921,-0.0000111
 2,-0.01291928,0.00137280,-0.04931549,0.01670161,-0.00262107,0.00051689
 ,0.01261737,-0.00418065,0.05145255,0.00002730,0.00003078,-0.00000788,0
 .00002280,-0.00001044,-0.00001042,-0.00006318,0.00008370,-0.00005586,-
 0.00001781,-0.00001036,-0.00000586,-0.00001417,0.00001036,0.00000121,-
 0.00004685,-0.00003206,-0.00003829,0.00000005,-0.00000849,0.00000862,0
 .00030850,-0.00029778,0.00024875,-0.00008745,0.00001317,-0.00002342,-0
 .00007537,0.00005385,-0.00003047,0.00000999,0.00004524,-0.00003917,0.0
 0000874,-0.00000947,-0.00000217,-0.00089584,0.00053258,-0.00066866,0.0
 0028106,0.00001049,0.00071312,0.00001868,-0.00001415,-0.00001777,0.000
 00093,0.00003346,-0.00001319,-0.00001968,-0.00003848,0.00001605,-0.000
 00299,0.00000597,0.,0.00001426,-0.00000046,-0.00000537,-0.00023898,-0.
 00033403,0.00003530,0.00057186,0.00009082,0.00101264,-0.00000298,0.000
 01356,-0.00000230,0.00002418,-0.00003655,0.00015145,0.00002129,0.00000
 752,-0.00004139,-0.00001381,0.00006733,-0.00002365,-0.00190795,-0.0028
 0407,0.00069191,0.00402003,-0.00178089,0.01798451,0.00010141,-0.000150
 85,0.00017470,0.00044687,0.00051690,-0.00053260,0.00047772,0.00066094,
 0.00012952,0.00037908,0.00001643,0.00003824,-0.00105257,-0.00024110,-0
 .00026302,0.00060563,-0.00002546,-0.00035926,0.00007041,0.00000062,0.0
 0004540,0.00000913,0.00000003,-0.00000154,0.00002305,-0.00001963,-0.00
 001107,-0.00000799,0.00001830,0.00001287,-0.06433596,0.00878286,-0.065
 23572,0.00095982,-0.00112181,0.00696527,-0.00574110,0.00266529,-0.0308
 3145,0.06612186,-0.00000109,-0.00000174,-0.00000738,0.00000247,0.00000
 176,0.00001717,0.00002210,-0.00001922,-0.00000389,0.00000349,0.0000041
 8,-0.00000349,-0.00000049,0.00000128,-0.00000210,0.00000216,0.00001011
 ,0.00000520,0.00000080,-0.00000176,0.00000634,-0.00003195,0.00004130,0
 .00002110,-0.00001265,0.00000966,-0.00000108,0.00001148,0.00000055,-0.
 00000790,0.00001055,-0.00000036,0.00000281,-0.00000215,-0.00002147,-0.
 00001738,0.00020424,0.00001961,0.00000663,0.00002040,-0.00021483,-0.00
 000542,-0.00001048,-0.00000159,-0.00002468,-0.00000175,0.00001797,-0.0
 0000796,-0.00001362,0.00001558,0.00003781,0.00002838,-0.00000926,0.000
 00602,0.00002728,0.00000476,-0.00000495,-0.00033595,-0.00048905,0.0000
 0356,0.00049329,0.00043770,0.00152288,-0.00001077,0.00003755,0.0000314
 1,0.00003649,-0.00003326,0.00023633,0.00007293,0.00002507,-0.00004917,
 -0.00007537,-0.00000384,0.00000248,-0.00337674,-0.00497935,0.00019178,
 0.00754480,-0.00348345,0.02485523,-0.00015154,0.00001434,-0.00035283,0
 .00075311,0.00041491,-0.00020724,-0.00003676,0.00090582,-0.00050704,0.
 00022580,0.00103651,-0.00021056,-0.00078584,-0.00028051,0.00036332,0.0
 0041565,0.00021681,-0.00032489,0.00007104,0.00007243,0.00006384,0.0000
 0309,-0.00000336,-0.00002090,-0.00003099,0.00000369,0.00003300,-0.0000
 1019,0.00002513,0.00001987,0.00865939,-0.04867755,0.02790001,-0.008314
 26,0.00436823,-0.02665792,0.00131776,-0.00159072,0.00607339,-0.0067241
 3,0.05212637,0.00001939,0.00001322,-0.00000988,0.00000747,0.00000056,-
 0.00001036,0.00000732,0.00000484,-0.00002903,-0.00001007,-0.00001158,-
 0.00000231,-0.00001673,0.00000761,0.00000696,-0.00002313,-0.00000507,-
 0.00000740,0.00000185,0.00000292,0.00002523,0.00018174,-0.00007949,0.0
 0010658,0.00001419,-0.00001650,-0.00003399,-0.00004148,0.00002281,0.00
 000068,-0.00001953,0.00001632,-0.00001384,-0.00000440,0.00001208,0.000
 03887,-0.00030829,0.00007786,-0.00004075,0.00026272,-0.00005192,0.0000
 3661,0.00000877,-0.00000952,0.00002745,0.00000595,-0.00001076,0.000002
 87,0.00000566,-0.00001871,-0.00004080,-0.00003293,0.00001640,-0.000000
 06,-0.00002153,-0.00001444,-0.00000110,0.00024773,0.00031901,0.0000121
 9,-0.00043167,-0.00046592,-0.00073815,-0.00001133,-0.00002892,0.000012
 16,-0.00003215,0.00004237,-0.00014805,-0.00001950,0.00002063,0.0000317
 0,0.00007344,0.00002299,-0.00002838,0.00206067,0.00206541,0.00074546,-
 0.00326812,0.00067716,-0.01091423,0.00009897,-0.00013143,0.00028314,-0
 .00011502,0.00041387,0.00053818,0.00059468,-0.00018468,0.00015236,-0.0
 0023060,0.00009511,-0.00000173,0.00014085,0.00048000,0.00072239,-0.000
 14460,-0.00005000,-0.00028654,0.00001695,-0.00001862,-0.00004005,0.000
 00051,-0.00001589,-0.00001619,-0.00001166,0.00000043,0.00001343,0.0000
 0052,-0.00002160,-0.00001321,-0.06436766,0.02843160,-0.27748558,-0.004
 19684,0.00172597,-0.01429339,-0.00043308,-0.00035074,0.00007868,0.0699
 9096,-0.03298337,0.30132008\\-0.00048801,0.00042558,-0.00046388,-0.000
 33985,-0.00046927,0.00010154,-0.00015337,0.00000472,-0.00038865,0.0003
 7100,0.00068474,0.00060403,0.00060810,-0.00042595,-0.00044772,0.000545
 94,-0.00028792,0.00042956,-0.00042171,0.00042584,0.00044045,0.00032639
 ,-0.00013451,0.00011591,-0.00013549,0.00002415,-0.00044255,-0.00007421
 ,0.00002018,-0.00036702,0.00056233,-0.00030786,0.00050387,-0.00057560,
 0.00019291,0.00040539,0.00171414,-0.00155964,-0.00181593,-0.00154717,0
 .00142577,0.00133892,0.00025296,0.00045691,0.00003965,-0.00042671,-0.0
 0047772,0.00065725,-0.00055166,0.00017135,-0.00048808,0.00068117,-0.00
 042044,-0.00034146,0.00086353,-0.00008196,0.00008028,-0.00008729,0.000
 20235,-0.00050517,0.00021892,0.00025715,0.00014976,-0.00030222,0.00064
 066,0.00050580,-0.00045879,-0.00076621,0.00023569,0.00023465,-0.000603
 02,-0.00031826,-0.00069515,0.00006692,0.00001033,-0.00003389,0.0002036
 8,0.00016156,0.00015847,0.00023886,0.00031095,0.00001809,0.00009772,0.
 00010511,0.00022265,-0.00059133,-0.00040724,-0.00068161,0.00019278,-0.
 00013131,0.00025091,-0.00008718,-0.00005318,0.00035020,-0.00032690,-0.
 00036115,-0.00017662,0.00015199,0.00012851,0.00025600,-0.00049558,-0.0
 0026160,-0.00040720,-0.00026630,0.00080555,-0.00065134,0.00051093,-0.0
 0045153,0.00045849,0.00061909,0.00026718,-0.00021123,-0.00035369,0.000
 23444,-0.00017515,0.00076692,0.00042476,0.00074988,-0.00014009,0.00002
 231,-0.00024952,0.00001433,-0.00083404\\\@


 The best way to pay for a lovely moment is to enjoy it.
 -- Richard Bach
 Job cpu time:       0 days  1 hours 17 minutes  4.1 seconds.
 Elapsed time:       0 days  0 hours  9 minutes 41.0 seconds.
 File lengths (MBytes):  RWF=    370 Int=      0 D2E=      0 Chk=      7 Scr=      1
 Normal termination of Gaussian 16 at Sat Jan 21 11:12:45 2023.
