 Entering Gaussian System, Link 0=/dragofs/sw/campus/0.2/software/gaussian/16.gaussian/gaussian/g16_legacy/g16
 Input=C12H26O3_pair_037_041_allign_FREQ_g16.com
 Output=C12H26O3_pair_037_041_allign_FREQ_g16.log
 Initial command:
 /dragofs/sw/campus/0.2/software/gaussian/16.gaussian/gaussian/g16_legacy/l1.exe "/tmp/jramos/37804/Gau-2967770.inp" -scrdir="/tmp/jramos/37804/"
 Entering Link 1 = /dragofs/sw/campus/0.2/software/gaussian/16.gaussian/gaussian/g16_legacy/l1.exe PID=   2967771.
  
 Copyright (c) 1988,1990,1992,1993,1995,1998,2003,2009,2016,
            Gaussian, Inc.  All Rights Reserved.
  
 This is part of the Gaussian(R) 16 program.  It is based on
 the Gaussian(R) 09 system (copyright 2009, Gaussian, Inc.),
 the Gaussian(R) 03 system (copyright 2003, Gaussian, Inc.),
 the Gaussian(R) 98 system (copyright 1998, Gaussian, Inc.),
 the Gaussian(R) 94 system (copyright 1995, Gaussian, Inc.),
 the Gaussian 92(TM) system (copyright 1992, Gaussian, Inc.),
 the Gaussian 90(TM) system (copyright 1990, Gaussian, Inc.),
 the Gaussian 88(TM) system (copyright 1988, Gaussian, Inc.),
 the Gaussian 86(TM) system (copyright 1986, Carnegie Mellon
 University), and the Gaussian 82(TM) system (copyright 1983,
 Carnegie Mellon University). Gaussian is a federally registered
 trademark of Gaussian, Inc.
  
 This software contains proprietary and confidential information,
 including trade secrets, belonging to Gaussian, Inc.
  
 This software is provided under written license and may be
 used, copied, transmitted, or stored only in accord with that
 written license.
  
 The following legend is applicable only to US Government
 contracts under FAR:
  
                    RESTRICTED RIGHTS LEGEND
  
 Use, reproduction and disclosure by the US Government is
 subject to restrictions as set forth in subparagraphs (a)
 and (c) of the Commercial Computer Software - Restricted
 Rights clause in FAR 52.227-19.
  
 Gaussian, Inc.
 340 Quinnipiac St., Bldg. 40, Wallingford CT 06492
  
  
 ---------------------------------------------------------------
 Warning -- This program may not be used in any manner that
 competes with the business of Gaussian, Inc. or will provide
 assistance to any competitor of Gaussian, Inc.  The licensee
 of this program is prohibited from giving any competitor of
 Gaussian, Inc. access to this program.  By using this program,
 the user acknowledges that Gaussian, Inc. is engaged in the
 business of creating and licensing software in the field of
 computational chemistry and represents and warrants to the
 licensee that it is not a competitor of Gaussian, Inc. and that
 it will not use this program in any manner prohibited above.
 ---------------------------------------------------------------
  

 Cite this work as:
 Gaussian 16, Revision A.03,
 M. J. Frisch, G. W. Trucks, H. B. Schlegel, G. E. Scuseria, 
 M. A. Robb, J. R. Cheeseman, G. Scalmani, V. Barone, 
 G. A. Petersson, H. Nakatsuji, X. Li, M. Caricato, A. V. Marenich, 
 J. Bloino, B. G. Janesko, R. Gomperts, B. Mennucci, H. P. Hratchian, 
 J. V. Ortiz, A. F. Izmaylov, J. L. Sonnenberg, D. Williams-Young, 
 F. Ding, F. Lipparini, F. Egidi, J. Goings, B. Peng, A. Petrone, 
 T. Henderson, D. Ranasinghe, V. G. Zakrzewski, J. Gao, N. Rega, 
 G. Zheng, W. Liang, M. Hada, M. Ehara, K. Toyota, R. Fukuda, 
 J. Hasegawa, M. Ishida, T. Nakajima, Y. Honda, O. Kitao, H. Nakai, 
 T. Vreven, K. Throssell, J. A. Montgomery, Jr., J. E. Peralta, 
 F. Ogliaro, M. J. Bearpark, J. J. Heyd, E. N. Brothers, K. N. Kudin, 
 V. N. Staroverov, T. A. Keith, R. Kobayashi, J. Normand, 
 K. Raghavachari, A. P. Rendell, J. C. Burant, S. S. Iyengar, 
 J. Tomasi, M. Cossi, J. M. Millam, M. Klene, C. Adamo, R. Cammi, 
 J. W. Ochterski, R. L. Martin, K. Morokuma, O. Farkas, 
 J. B. Foresman, and D. J. Fox, Gaussian, Inc., Wallingford CT, 2016.
 
 ******************************************
 Gaussian 16:  EM64L-G16RevA.03 25-Dec-2016
                21-Jan-2023 
 ******************************************
 %chk=C12H26O3_pair_037_041_allign_FREQ_gaussian.chk
 %nproc=8
 Will use up to    8 processors via shared memory.
 %mem=1000Mb
 -------------------------------------------------------
 #p BLYP/6-31G* EmpiricalDispersion=GD3 freq scale=0.992
 -------------------------------------------------------
 1/10=4,30=1,38=1,114=992000/1,3;
 2/12=2,17=6,18=5,40=1/2;
 3/5=1,6=6,7=1,11=2,25=1,30=1,71=2,74=402,124=31,140=1/1,2,3;
 4//1;
 5/5=2,38=5,98=1/2;
 8/6=4,10=90,11=11/1;
 11/6=1,8=1,9=11,15=111,16=1/1,2,10;
 10/6=1/2;
 6/7=2,8=2,9=2,10=2,28=1/1;
 7/8=1,10=1,25=1/1,2,3,16;
 1/10=4,30=1/3;
 99//99;
 Leave Link    1 at Sat Jan 21 11:33:21 2023, MaxMem=   131072000 cpu:               0.4 elap:               0.1
 (Enter /dragofs/sw/campus/0.2/software/gaussian/16.gaussian/gaussian/g16_legacy/l101.exe)
 --------------------------------------------
 Conformer name C12H26O3_pair_037_041_allign.
 --------------------------------------------
 Symbolic Z-matrix:
 Charge =  0 Multiplicity = 1
 H                    -1.0892   -1.8375    0.3612 
 C                    -1.8535   -1.6846   -0.4192 
 C                    -2.9639   -0.73      0.0653 
 H                    -1.3462   -1.2778   -1.3041 
 H                    -2.2697   -2.6708   -0.6815 
 H                    -3.5142   -1.1802    0.9106 
 H                    -3.6979   -0.5678   -0.744 
 C                    -2.4394    0.6435    0.5212 
 C                    -3.5662    1.5755    1.0226 
 H                    -1.7192    0.488     1.3533 
 H                    -4.1078    1.0593    1.8353 
 H                    -4.286     1.7262    0.1991 
 O                    -1.7449    1.2165   -0.619 
 H                    -1.3863    2.0817   -0.3448 
 C                    -3.0558    2.9397    1.5342 
 H                    -2.3123    2.8119    2.3393 
 H                    -3.8795    3.5538    1.9299 
 H                    -2.5809    3.5248    0.7276 
 H                     4.2051   -0.5432    0.111 
 C                     4.0364    0.5439    0.0641 
 C                     2.6895    0.8549   -0.6207 
 H                     4.0755    0.934     1.0941 
 H                     4.8724    0.9951   -0.4928 
 H                     2.7269    0.5716   -1.6833 
 H                     2.4912    1.9411   -0.5982 
 C                     1.4713    0.1376    0.0007 
 C                     1.2358    0.3975    1.4996 
 H                     0.5644    0.3963   -0.5681 
 H                     2.1063    0.0442    2.0769 
 H                     0.383    -0.2255    1.8155 
 O                     1.6516   -1.3336   -0.0921 
 C                     1.4028   -1.9131   -1.3086 
 O                     1.105    -1.2998   -2.3267 
 C                     1.4913   -3.4289   -1.1975 
 H                     1.6498   -3.8594   -2.1939 
 H                     2.2904   -3.7357   -0.5083 
 H                     0.5352   -3.8047   -0.7975 
 C                     0.9515    1.8786    1.823 
 H                     0.6822    2.0055    2.8832 
 H                     0.1126    2.2618    1.2198 
 H                     1.8255    2.5174    1.6215 
 
 ITRead=  0  0  0  0  0  0  0  0  0  0  0  0  0  0  0  0  0  0  0  0
 ITRead=  0  0  0  0  0  0  0  0  0  0  0  0  0  0  0  0  0  0  0  0
 ITRead=  0
 MicOpt= -1 -1 -1 -1 -1 -1 -1 -1 -1 -1 -1 -1 -1 -1 -1 -1 -1 -1 -1 -1
 MicOpt= -1 -1 -1 -1 -1 -1 -1 -1 -1 -1 -1 -1 -1 -1 -1 -1 -1 -1 -1 -1
 MicOpt= -1
 NAtoms=     41 NQM=       41 NQMF=       0 NMMI=      0 NMMIF=      0
                NMic=       0 NMicF=      0.
                    Isotopes and Nuclear Properties:
 (Nuclear quadrupole moments (NQMom) in fm**2, nuclear magnetic moments (NMagM)
  in nuclear magnetons)

  Atom         1           2           3           4           5           6           7           8           9          10
 IAtWgt=           1          12          12           1           1           1           1          12          12           1
 AtmWgt=   1.0078250  12.0000000  12.0000000   1.0078250   1.0078250   1.0078250   1.0078250  12.0000000  12.0000000   1.0078250
 NucSpn=           1           0           0           1           1           1           1           0           0           1
 AtZEff=  -0.0000000  -0.0000000  -0.0000000  -0.0000000  -0.0000000  -0.0000000  -0.0000000  -0.0000000  -0.0000000  -0.0000000
 NQMom=    0.0000000   0.0000000   0.0000000   0.0000000   0.0000000   0.0000000   0.0000000   0.0000000   0.0000000   0.0000000
 NMagM=    2.7928460   0.0000000   0.0000000   2.7928460   2.7928460   2.7928460   2.7928460   0.0000000   0.0000000   2.7928460
 AtZNuc=   1.0000000   6.0000000   6.0000000   1.0000000   1.0000000   1.0000000   1.0000000   6.0000000   6.0000000   1.0000000

  Atom        11          12          13          14          15          16          17          18          19          20
 IAtWgt=           1           1          16           1          12           1           1           1           1          12
 AtmWgt=   1.0078250   1.0078250  15.9949146   1.0078250  12.0000000   1.0078250   1.0078250   1.0078250   1.0078250  12.0000000
 NucSpn=           1           1           0           1           0           1           1           1           1           0
 AtZEff=  -0.0000000  -0.0000000  -0.0000000  -0.0000000  -0.0000000  -0.0000000  -0.0000000  -0.0000000  -0.0000000  -0.0000000
 NQMom=    0.0000000   0.0000000   0.0000000   0.0000000   0.0000000   0.0000000   0.0000000   0.0000000   0.0000000   0.0000000
 NMagM=    2.7928460   2.7928460   0.0000000   2.7928460   0.0000000   2.7928460   2.7928460   2.7928460   2.7928460   0.0000000
 AtZNuc=   1.0000000   1.0000000   8.0000000   1.0000000   6.0000000   1.0000000   1.0000000   1.0000000   1.0000000   6.0000000

  Atom        21          22          23          24          25          26          27          28          29          30
 IAtWgt=          12           1           1           1           1          12          12           1           1           1
 AtmWgt=  12.0000000   1.0078250   1.0078250   1.0078250   1.0078250  12.0000000  12.0000000   1.0078250   1.0078250   1.0078250
 NucSpn=           0           1           1           1           1           0           0           1           1           1
 AtZEff=  -0.0000000  -0.0000000  -0.0000000  -0.0000000  -0.0000000  -0.0000000  -0.0000000  -0.0000000  -0.0000000  -0.0000000
 NQMom=    0.0000000   0.0000000   0.0000000   0.0000000   0.0000000   0.0000000   0.0000000   0.0000000   0.0000000   0.0000000
 NMagM=    0.0000000   2.7928460   2.7928460   2.7928460   2.7928460   0.0000000   0.0000000   2.7928460   2.7928460   2.7928460
 AtZNuc=   6.0000000   1.0000000   1.0000000   1.0000000   1.0000000   6.0000000   6.0000000   1.0000000   1.0000000   1.0000000

  Atom        31          32          33          34          35          36          37          38          39          40
 IAtWgt=          16          12          16          12           1           1           1          12           1           1
 AtmWgt=  15.9949146  12.0000000  15.9949146  12.0000000   1.0078250   1.0078250   1.0078250  12.0000000   1.0078250   1.0078250
 NucSpn=           0           0           0           0           1           1           1           0           1           1
 AtZEff=  -0.0000000  -0.0000000  -0.0000000  -0.0000000  -0.0000000  -0.0000000  -0.0000000  -0.0000000  -0.0000000  -0.0000000
 NQMom=    0.0000000   0.0000000   0.0000000   0.0000000   0.0000000   0.0000000   0.0000000   0.0000000   0.0000000   0.0000000
 NMagM=    0.0000000   0.0000000   0.0000000   0.0000000   2.7928460   2.7928460   2.7928460   0.0000000   2.7928460   2.7928460
 AtZNuc=   8.0000000   6.0000000   8.0000000   6.0000000   1.0000000   1.0000000   1.0000000   6.0000000   1.0000000   1.0000000

  Atom        41
 IAtWgt=           1
 AtmWgt=   1.0078250
 NucSpn=           1
 AtZEff=  -0.0000000
 NQMom=    0.0000000
 NMagM=    2.7928460
 AtZNuc=   1.0000000
 Leave Link  101 at Sat Jan 21 11:33:21 2023, MaxMem=   131072000 cpu:               1.0 elap:               0.2
 (Enter /dragofs/sw/campus/0.2/software/gaussian/16.gaussian/gaussian/g16_legacy/l103.exe)

 GradGradGradGradGradGradGradGradGradGradGradGradGradGradGradGradGradGrad
 Berny optimization.
 Initialization pass.
 Trust Radius=3.00D-01 FncErr=1.00D-07 GrdErr=1.00D-07 EigMax=2.50D+02 EigMin=1.00D-04
 Number of steps in this run=      2 maximum allowed number of steps=      2.
 GradGradGradGradGradGradGradGradGradGradGradGradGradGradGradGradGradGrad

 Leave Link  103 at Sat Jan 21 11:33:21 2023, MaxMem=   131072000 cpu:               0.2 elap:               0.0
 (Enter /dragofs/sw/campus/0.2/software/gaussian/16.gaussian/gaussian/g16_legacy/l202.exe)
                          Input orientation:                          
 ---------------------------------------------------------------------
 Center     Atomic      Atomic             Coordinates (Angstroms)
 Number     Number       Type             X           Y           Z
 ---------------------------------------------------------------------
      1          1           0       -1.089200   -1.837500    0.361200
      2          6           0       -1.853500   -1.684600   -0.419200
      3          6           0       -2.963900   -0.730000    0.065300
      4          1           0       -1.346200   -1.277800   -1.304100
      5          1           0       -2.269700   -2.670800   -0.681500
      6          1           0       -3.514200   -1.180200    0.910600
      7          1           0       -3.697900   -0.567800   -0.744000
      8          6           0       -2.439400    0.643500    0.521200
      9          6           0       -3.566200    1.575500    1.022600
     10          1           0       -1.719200    0.488000    1.353300
     11          1           0       -4.107800    1.059300    1.835300
     12          1           0       -4.286000    1.726200    0.199100
     13          8           0       -1.744900    1.216500   -0.619000
     14          1           0       -1.386300    2.081700   -0.344800
     15          6           0       -3.055800    2.939700    1.534200
     16          1           0       -2.312300    2.811900    2.339300
     17          1           0       -3.879500    3.553800    1.929900
     18          1           0       -2.580900    3.524800    0.727600
     19          1           0        4.205100   -0.543200    0.111000
     20          6           0        4.036400    0.543900    0.064100
     21          6           0        2.689500    0.854900   -0.620700
     22          1           0        4.075500    0.934000    1.094100
     23          1           0        4.872400    0.995100   -0.492800
     24          1           0        2.726900    0.571600   -1.683300
     25          1           0        2.491200    1.941100   -0.598200
     26          6           0        1.471300    0.137600    0.000700
     27          6           0        1.235800    0.397500    1.499600
     28          1           0        0.564400    0.396300   -0.568100
     29          1           0        2.106300    0.044200    2.076900
     30          1           0        0.383000   -0.225500    1.815500
     31          8           0        1.651600   -1.333600   -0.092100
     32          6           0        1.402800   -1.913100   -1.308600
     33          8           0        1.105000   -1.299800   -2.326700
     34          6           0        1.491300   -3.428900   -1.197500
     35          1           0        1.649800   -3.859400   -2.193900
     36          1           0        2.290400   -3.735700   -0.508300
     37          1           0        0.535200   -3.804700   -0.797500
     38          6           0        0.951500    1.878600    1.823000
     39          1           0        0.682200    2.005500    2.883200
     40          1           0        0.112600    2.261800    1.219800
     41          1           0        1.825500    2.517400    1.621500
 ---------------------------------------------------------------------
                    Distance matrix (angstroms):
                    1          2          3          4          5
     1  H    0.000000
     2  C    1.102976   0.000000
     3  C    2.197411   1.542397   0.000000
     4  H    1.775539   1.098129   2.189131   0.000000
     5  H    1.781907   1.102095   2.192334   1.783517   0.000000
     6  H    2.571869   2.186484   1.104555   3.100749   2.511066
     7  H    3.104661   2.180493   1.104550   2.519584   2.542886
     8  C    2.829134   2.578310   1.539301   2.866740   3.529854
     9  C    4.268671   3.954792   2.567980   4.299215   4.755621
    10  H    2.605593   2.807131   2.166044   3.212313   3.797562
    11  H    4.435805   4.206379   2.764598   4.790021   4.860714
    12  H    4.790174   4.234726   2.792628   4.463860   4.916760
    13  O    3.273782   2.909999   2.396474   2.617223   3.923063
    14  H    3.993349   3.795896   3.250025   3.494010   4.845619
    15  C    5.297649   5.161923   3.953835   5.363393   6.083173
    16  H    5.198632   5.295123   4.259192   5.561777   6.259956
    17  H    6.269985   6.088003   4.760882   6.341981   6.939489
    18  H    5.577964   5.383503   4.323038   5.358848   6.361436
    19  H    5.455953   6.187935   7.171579   5.775732   6.861324
    20  C    5.659603   6.315910   7.115267   5.844908   7.117381
    21  C    4.742544   5.208504   5.911297   4.615444   6.085057
    22  H    5.906986   6.655838   7.306194   6.327579   7.510586
    23  H    6.655345   7.240438   8.043323   6.670477   8.030194
    24  H    4.954429   5.260081   6.094011   4.489345   6.040097
    25  H    5.293159   5.661639   6.110084   5.058187   6.628931
    26  C    3.253789   3.814580   4.519724   3.412355   4.727324
    27  C    3.420059   4.190550   4.578859   4.163423   5.143947
    28  H    2.930504   3.193518   3.757479   2.644749   4.177569
    29  H    4.086030   4.989918   5.509342   5.009850   5.842035
    30  H    2.623148   3.482067   3.810441   3.718786   4.387632
    31  O    2.823363   3.537785   4.657462   3.234016   4.184745
    32  C    3.000668   3.383302   4.728149   2.821458   3.801923
    33  O    3.511188   3.541094   4.754186   2.656045   3.996864
    34  C    3.408971   3.851755   5.359807   3.562303   3.871187
    35  H    4.256611   4.489145   6.015260   4.053692   4.366074
    36  H    3.972517   4.624593   6.080372   4.460878   4.685992
    37  H    2.801988   3.216181   4.737289   3.190851   3.027647
    38  C    4.484497   5.058842   5.022416   5.002104   6.111112
    39  H    4.926154   5.563493   5.358877   5.694554   6.579406
    40  H    4.357267   4.703822   4.443939   4.585514   5.798348
    41  H    5.389711   5.946117   5.992138   5.746508   6.999421
                    6          7          8          9         10
     6  H    0.000000
     7  H    1.773832   0.000000
     8  C    2.152373   2.156803   0.000000
     9  C    2.758465   2.780639   1.545867   0.000000
    10  H    2.490161   3.070608   1.111422   2.168739   0.000000
    11  H    2.494552   3.077054   2.164095   1.104660   2.502822
    12  H    3.090157   2.549066   2.164698   1.104072   3.074700
    13  O    3.348771   2.648313   1.452830   2.478077   2.102698
    14  H    4.091941   3.538743   1.981766   2.622591   2.352498
    15  C    4.191967   4.231435   2.584309   1.543789   2.798224
    16  H    4.407109   4.780063   2.832596   2.198784   2.593159
    17  H    4.856251   4.916331   3.539515   2.198868   3.794535
    18  H    4.800163   4.490286   2.892147   2.203999   3.218102
    19  H    7.786702   7.949153   6.762093   8.106356   6.140359
    20  C    7.791062   7.855463   6.492676   7.731911   5.898482
    21  C    6.706147   6.545086   5.258730   6.507955   4.844371
    22  H    7.880803   8.127716   6.546490   7.668912   5.817615
    23  H    8.777045   8.715262   7.390145   8.593211   6.863995
    24  H    6.982009   6.592312   5.617441   6.923353   5.384769
    25  H    6.934250   6.679880   5.219927   6.281142   4.862851
    26  C    5.236385   5.269990   3.977490   5.337438   3.483044
    27  C    5.039698   5.505174   3.811152   4.967335   2.960003
    28  H    4.615938   4.373515   3.204762   4.580687   2.985802
    29  H    5.869364   6.482342   4.841772   5.969396   3.918546
    30  H    4.113206   4.829281   3.224332   4.412309   2.267588
    31  O    5.264449   5.443214   4.584904   6.077076   4.095082
    32  C    5.444160   5.305256   4.964562   6.503521   4.753722
    33  O    5.641934   5.109659   4.944666   6.426918   4.971392
    34  C    5.878415   5.943009   5.915131   7.453266   5.670626
    35  H    6.594159   6.444745   6.661038   8.190889   6.544668
    36  H    6.499018   6.778708   6.527501   8.053090   6.114089
    37  H    5.118911   5.329120   5.511234   7.005769   5.304294
    38  C    5.489190   5.847331   3.836451   4.598056   3.047462
    39  H    5.625798   6.242093   4.144692   4.657857   3.226472
    40  H    5.009655   5.136444   3.101555   3.747461   2.553366
    41  H    6.533760   6.754406   4.786599   5.506023   4.093323
                   11         12         13         14         15
    11  H    0.000000
    12  H    1.775855   0.000000
    13  O    3.410513   2.717769   0.000000
    14  H    3.633827   2.971610   0.975885   0.000000
    15  C    2.175608   2.183682   3.053547   2.655943   0.000000
    16  H    2.559188   3.107200   3.408634   2.931733   1.103318
    17  H    2.506711   2.549712   4.064035   3.682035   1.100990
    18  H    3.104370   2.534096   2.800085   2.158622   1.103846
    19  H    8.639764   8.789580   6.247555   6.193675   8.177821
    20  C    8.350496   8.407045   5.860243   5.651345   7.628916
    21  C    7.230284   7.077347   4.449119   4.265361   6.480622
    22  H    8.217754   8.446496   6.073843   5.763585   7.421048
    23  H    9.277293   9.213551   6.622205   6.354048   8.411097
    24  H    7.702696   7.352367   4.641727   4.581528   7.028501
    25  H    7.088462   6.827321   4.297676   3.888314   6.026072
    26  C    5.944884   5.975744   3.448477   3.473438   5.540579
    27  C    5.394880   5.826407   3.747506   3.621291   4.988167
    28  H    5.295786   5.087594   2.451160   2.587599   4.898408
    29  H    6.301098   6.871445   4.844988   4.713204   5.943544
    30  H    4.671016   5.312386   3.540355   3.622222   4.682197
    31  O    6.527751   6.685975   4.279818   4.577878   6.562435
    32  C    7.006139   6.919545   4.491988   4.966530   7.177067
    33  O    7.075371   6.678265   4.167725   4.644249   7.084643
    34  C    7.790490   7.867830   5.690992   6.274902   8.288388
    35  H    8.577763   8.494651   6.306271   6.923420   9.070235
    36  H    8.331954   8.577984   6.389068   6.883821   8.792874
    37  H    7.221328   7.404596   5.517533   6.208607   7.988682
    38  C    5.125224   5.485589   3.697609   3.194670   4.155453
    39  H    4.993745   5.653796   4.333444   3.834642   4.082300
    40  H    4.431323   4.547129   2.814986   2.174192   3.255327
    41  H    6.113576   6.324528   4.411342   3.791020   4.900311
                   16         17         18         19         20
    16  H    0.000000
    17  H    1.781612   0.000000
    18  H    1.782680   1.769951   0.000000
    19  H    7.661496   9.244164   7.935907   0.000000
    20  C    7.115220   8.671919   7.287980   1.101111   0.000000
    21  C    6.132655   7.545951   6.059983   2.187947   1.542664
    22  H    6.773553   8.416884   7.152218   1.779158   1.102092
    23  H    7.933566   9.434626   7.964951   1.782198   1.101188
    24  H    6.825965   8.098966   6.535026   2.578249   2.183796
    25  H    5.697439   7.041158   5.476500   3.100349   2.185967
    26  C    5.190044   6.635005   5.331213   2.819453   2.597852
    27  C    4.373035   6.026083   4.994316   3.410259   3.150469
    28  H    4.750105   5.996504   4.621608   3.820803   3.532173
    29  H    5.220445   6.940368   5.992081   2.935092   2.833081
    30  H    4.094485   5.697816   4.902344   4.196987   4.123919
    31  O    6.229717   7.652988   6.495384   2.680736   3.039190
    32  C    7.030986   8.263024   7.041785   3.427065   3.854478
    33  O    7.096166   8.156060   6.796424   4.015650   4.208118
    34  C    8.119354   9.347953   8.285093   4.171828   4.883883
    35  H    8.986344  10.125928   8.997799   4.779048   5.493949
    36  H    8.494983   9.856434   8.830168   3.773813   4.657374
    37  H    7.856664   9.004211   8.109105   4.993087   5.648989
    38  C    3.433658   5.114321   4.048176   4.402496   3.793647
    39  H    3.148514   4.910715   4.195558   5.156723   4.618902
    40  H    2.726909   4.255628   3.015356   5.083898   4.436556
    41  H    4.209912   5.806570   4.607632   4.160695   3.347876
                   21         22         23         24         25
    21  C    0.000000
    22  H    2.206307   0.000000
    23  H    2.191134   1.776805   0.000000
    24  H    1.100353   3.108699   2.489942   0.000000
    25  H    1.104382   2.527476   2.564398   1.763101   0.000000
    26  C    1.544237   2.934559   3.542080   2.144934   2.156731
    27  C    2.611155   2.918246   4.189468   3.519168   2.891279
    28  H    2.174656   3.921716   4.350068   2.439428   2.469792
    29  H    2.876526   2.373897   3.893440   3.847389   3.301899
    30  H    3.524525   3.936930   5.193537   4.286121   3.868412
    31  O    2.479150   3.524822   3.994616   2.705176   3.418293
    32  C    3.128998   4.585005   4.600139   2.840312   4.067449
    33  O    3.172351   5.051297   4.777348   2.558644   3.925901
    34  C    4.485457   5.564568   5.612505   4.215057   5.495076
    35  H    5.077456   6.298543   6.070013   4.588531   6.074538
    36  H    4.609287   5.249797   5.389567   4.485977   5.681062
    37  H    5.136549   6.210246   6.476282   4.973951   6.072880
    38  C    3.168639   3.344090   4.638638   4.141791   2.869981
    39  H    4.198863   3.982898   5.475040   5.204785   3.923872
    40  H    3.465144   4.181319   5.214712   4.256681   3.010932
    41  H    2.921962   2.801394   4.008898   3.939589   2.387959
                   26         27         28         29         30
    26  C    0.000000
    27  C    1.539386   0.000000
    28  H    1.101330   2.173974   0.000000
    29  H    2.173144   1.102663   3.081794   0.000000
    30  H    2.147030   1.102356   2.470038   1.763755   0.000000
    31  O    1.485109   2.388118   2.097888   2.609530   2.544832
    32  C    2.433995   3.640432   2.566044   3.973354   3.694318
    33  O    2.759907   4.187900   2.502334   4.711755   4.339726
    34  C    3.762447   4.688386   3.985906   4.812727   4.535225
    35  H    4.563348   5.651065   4.683193   5.803983   5.557454
    36  H    3.991548   4.714572   4.478401   4.583099   4.621658
    37  H    4.129786   4.840041   4.207360   5.054163   4.434141
    38  C    2.573334   1.542424   2.839792   2.182442   2.179561
    39  H    3.524278   2.192370   3.809839   2.554384   2.491358
    40  H    2.800803   2.194420   2.623128   3.102775   2.571893
    41  H    2.901017   2.203765   3.299058   2.530406   3.105148
                   31         32         33         34         35
    31  O    0.000000
    32  C    1.370253   0.000000
    33  O    2.300728   1.225296   0.000000
    34  C    2.374424   1.522441   2.440776   0.000000
    35  H    3.285914   2.152405   2.620304   1.096935   0.000000
    36  H    2.520193   2.179492   3.262723   1.098947   1.807462
    37  H    2.801834   2.142919   2.989590   1.102430   1.787529
    38  C    3.804731   4.938378   5.229321   6.130608   7.039016
    39  H    4.576214   5.783241   6.184402   6.843936   7.817304
    40  H    4.125107   5.048486   5.123233   6.334684   7.175334
    41  H    4.218633   5.328554   5.538810   6.589153   7.433150
                   36         37         38         39         40
    36  H    0.000000
    37  H    1.780204   0.000000
    38  C    6.224787   6.272179   0.000000
    39  H    6.859297   6.879505   1.101204   0.000000
    40  H    6.610533   6.407067   1.102019   1.776804   0.000000
    41  H    6.622193   6.890964   1.101156   1.777938   1.777842
                   41
    41  H    0.000000
 Stoichiometry    C12H26O3
 Framework group  C1[X(C12H26O3)]
 Deg. of freedom   117
 Full point group                 C1      NOp   1
 Largest Abelian subgroup         C1      NOp   1
 Largest concise Abelian subgroup C1      NOp   1
                         Standard orientation:                         
 ---------------------------------------------------------------------
 Center     Atomic      Atomic             Coordinates (Angstroms)
 Number     Number       Type             X           Y           Z
 ---------------------------------------------------------------------
      1          1           0        0.273645   -1.832147   -1.161362
      2          6           0        0.805957   -2.407097   -0.385068
      3          6           0        2.294316   -2.008321   -0.316102
      4          1           0        0.304183   -2.213807    0.572403
      5          1           0        0.696394   -3.477498   -0.623501
      6          1           0        2.805696   -2.272273   -1.258897
      7          1           0        2.796587   -2.573382    0.489168
      8          6           0        2.518257   -0.506787   -0.061755
      9          6           0        4.015954   -0.126388   -0.018097
     10          1           0        2.036636    0.066188   -0.883338
     11          1           0        4.484194   -0.450499   -0.964658
     12          1           0        4.497441   -0.699313    0.793630
     13          8           0        1.856135   -0.200303    1.194579
     14          1           0        1.969221    0.753836    1.365404
     15          6           0        4.262608    1.384186    0.183427
     16          1           0        3.765139    1.978634   -0.601728
     17          1           0        5.337174    1.622514    0.157235
     18          1           0        3.882666    1.731649    1.159844
     19          1           0       -3.886791    1.625765   -0.453517
     20          6           0       -3.303001    2.362875    0.119459
     21          6           0       -2.171581    1.667278    0.904217
     22          1           0       -2.913492    3.108597   -0.592432
     23          1           0       -3.990232    2.885214    0.803192
     24          1           0       -2.592279    1.027459    1.694421
     25          1           0       -1.544562    2.418067    1.416880
     26          6           0       -1.243343    0.781387    0.045007
     27          6           0       -0.547694    1.487700   -1.132662
     28          1           0       -0.488693    0.306486    0.691458
     29          1           0       -1.307345    1.875553   -1.831495
     30          1           0        0.021891    0.725085   -1.688703
     31          8           0       -2.031298   -0.304042   -0.592582
     32          6           0       -2.363097   -1.374469    0.195891
     33          8           0       -2.109607   -1.466873    1.391112
     34          6           0       -3.037119   -2.454401   -0.639134
     35          1           0       -3.607525   -3.121700    0.018601
     36          1           0       -3.686595   -2.018984   -1.411323
     37          1           0       -2.253806   -3.041649   -1.146000
     38          6           0        0.394149    2.625783   -0.689074
     39          1           0        0.952562    3.031735   -1.546994
     40          1           0        1.131881    2.265572    0.046076
     41          1           0       -0.158267    3.458160   -0.225902
 ---------------------------------------------------------------------
 Rotational constants (GHZ):           0.6782719           0.3424040           0.2570786
 Leave Link  202 at Sat Jan 21 11:33:21 2023, MaxMem=   131072000 cpu:               0.0 elap:               0.0
 (Enter /dragofs/sw/campus/0.2/software/gaussian/16.gaussian/gaussian/g16_legacy/l301.exe)
 Standard basis: 6-31G(d) (6D, 7F)
 Ernie: Thresh=  0.10000D-02 Tol=  0.10000D-05 Strict=F.
 There are   277 symmetry adapted cartesian basis functions of A   symmetry.
 There are   277 symmetry adapted basis functions of A   symmetry.
   277 basis functions,   524 primitive gaussians,   277 cartesian basis functions
    61 alpha electrons       61 beta electrons
       nuclear repulsion energy      1117.9429822953 Hartrees.
 IExCor=  402 DFT=T Ex=B Corr=LYP ExCW=0 ScaHFX=  0.000000
 ScaDFX=  1.000000  1.000000  1.000000  1.000000 ScalE2=  1.000000  1.000000
 IRadAn=      5 IRanWt=     -1 IRanGd=            0 ICorTp=0 IEmpDi=131
 NAtoms=   41 NActive=   41 NUniq=   41 SFac= 1.00D+00 NAtFMM=   60 NAOKFM=F Big=F
 Integral buffers will be    131072 words long.
 Raffenetti 2 integral format.
 Two-electron integral symmetry is turned on.
 R6Disp:  Grimme-D3 Dispersion energy=       -0.0551197315 Hartrees.
 Nuclear repulsion after empirical dispersion term =     1117.8878625638 Hartrees.
 Leave Link  301 at Sat Jan 21 11:33:21 2023, MaxMem=   131072000 cpu:               0.4 elap:               0.1
 (Enter /dragofs/sw/campus/0.2/software/gaussian/16.gaussian/gaussian/g16_legacy/l302.exe)
 NPDir=0 NMtPBC=     1 NCelOv=     1 NCel=       1 NClECP=     1 NCelD=      1
         NCelK=      1 NCelE2=     1 NClLst=     1 CellRange=     0.0.
 One-electron integrals computed using PRISM.
 One-electron integral symmetry used in STVInt
 NBasis=   277 RedAO= T EigKep=  3.30D-03  NBF=   277
 NBsUse=   277 1.00D-06 EigRej= -1.00D+00 NBFU=   277
 Precomputing XC quadrature grid using
 IXCGrd= 4 IRadAn=           5 IRanWt=          -1 IRanGd=           0 AccXCQ= 0.00D+00.
 Generated NRdTot=       0 NPtTot=           0 NUsed=           0 NTot=          32
 NSgBfM=   277   277   277   277   277 MxSgAt=    41 MxSgA2=    41.
 Leave Link  302 at Sat Jan 21 11:33:22 2023, MaxMem=   131072000 cpu:               3.8 elap:               0.5
 (Enter /dragofs/sw/campus/0.2/software/gaussian/16.gaussian/gaussian/g16_legacy/l303.exe)
 DipDrv:  MaxL=1.
 Leave Link  303 at Sat Jan 21 11:33:22 2023, MaxMem=   131072000 cpu:               0.3 elap:               0.1
 (Enter /dragofs/sw/campus/0.2/software/gaussian/16.gaussian/gaussian/g16_legacy/l401.exe)
 ExpMin= 1.61D-01 ExpMax= 5.48D+03 ExpMxC= 8.25D+02 IAcc=3 IRadAn=         5 AccDes= 0.00D+00
 Harris functional with IExCor=  402 and IRadAn=       5 diagonalized for initial guess.
 HarFok:  IExCor=  402 AccDes= 0.00D+00 IRadAn=         5 IDoV= 1 UseB2=F ITyADJ=14
 ICtDFT=  3500011 ScaDFX=  1.000000  1.000000  1.000000  1.000000
 FoFCou: FMM=F IPFlag=           0 FMFlag=      100000 FMFlg1=           0
         NFxFlg=           0 DoJE=T BraDBF=F KetDBF=T FulRan=T
         wScrn=  0.000000 ICntrl=       500 IOpCl=  0 I1Cent=   200000004 NGrid=           0
         NMat0=    1 NMatS0=      1 NMatT0=    0 NMatD0=    1 NMtDS0=    0 NMtDT0=    0
 Petite list used in FoFCou.
 Harris En= -698.796668340790    
 JPrj=0 DoOrth=F DoCkMO=F.
 Leave Link  401 at Sat Jan 21 11:33:24 2023, MaxMem=   131072000 cpu:              19.3 elap:               2.4
 (Enter /dragofs/sw/campus/0.2/software/gaussian/16.gaussian/gaussian/g16_legacy/l502.exe)
 Integral symmetry usage will be decided dynamically.
 Closed shell SCF:
 Using DIIS extrapolation, IDIIS=  1040.
 NGot=   131072000 LenX=   130912832 LenY=   130835662
 Requested convergence on RMS density matrix=1.00D-08 within 128 cycles.
 Requested convergence on MAX density matrix=1.00D-06.
 Requested convergence on             energy=1.00D-06.
 No special actions if energy rises.
 Fock matrices will be formed incrementally for  20 cycles.
 Integral accuracy reduced to 1.0D-05 until final iterations.

 Cycle   1  Pass 0  IDiag  1:
 FoFJK:  IHMeth= 1 ICntrl=     500 DoSepK=F KAlg= 0 I1Cent=           0 FoldK=F
 IRaf= 860000000 NMat=       1 IRICut=       1 DoRegI=T DoRafI=F ISym2E= 0 IDoP0=0 IntGTp=1.
 FoFCou: FMM=F IPFlag=           0 FMFlag=      100000 FMFlg1=           0
         NFxFlg=           0 DoJE=T BraDBF=F KetDBF=F FulRan=T
         wScrn=  0.000000 ICntrl=       500 IOpCl=  0 I1Cent=           0 NGrid=           0
         NMat0=    1 NMatS0=      1 NMatT0=    0 NMatD0=    1 NMtDS0=    0 NMtDT0=    0
 Symmetry not used in FoFCou.
 E= -697.777306680741    
 DIIS: error= 2.79D-02 at cycle   1 NSaved=   1.
 NSaved= 1 IEnMin= 1 EnMin= -697.777306680741     IErMin= 1 ErrMin= 2.79D-02
 ErrMax= 2.79D-02  0.00D+00 EMaxC= 1.00D-01 BMatC= 5.34D-01 BMatP= 5.34D-01
 IDIUse=3 WtCom= 7.21D-01 WtEn= 2.79D-01
 Coeff-Com:  0.100D+01
 Coeff-En:   0.100D+01
 Coeff:      0.100D+01
 Gap=     0.092 Goal=   None    Shift=    0.000
 GapD=    0.092 DampG=0.500 DampE=0.500 DampFc=0.2500 IDamp=-1.
 Damping current iteration by 2.50D-01
 RMSDP=7.57D-03 MaxDP=2.35D-01              OVMax= 2.81D-01

 Cycle   2  Pass 0  IDiag  1:
 RMSU=  1.88D-03    CP:  9.89D-01
 E= -697.974573302961     Delta-E=       -0.197266622220 Rises=F Damp=T
 DIIS: error= 1.24D-02 at cycle   2 NSaved=   2.
 NSaved= 2 IEnMin= 2 EnMin= -697.974573302961     IErMin= 2 ErrMin= 1.24D-02
 ErrMax= 1.24D-02  0.00D+00 EMaxC= 1.00D-01 BMatC= 7.60D-02 BMatP= 5.34D-01
 IDIUse=3 WtCom= 8.76D-01 WtEn= 1.24D-01
 Coeff-Com: -0.413D+00 0.141D+01
 Coeff-En:   0.000D+00 0.100D+01
 Coeff:     -0.361D+00 0.136D+01
 Gap=     0.174 Goal=   None    Shift=    0.000
 RMSDP=2.04D-03 MaxDP=6.26D-02 DE=-1.97D-01 OVMax= 2.55D-01

 Cycle   3  Pass 0  IDiag  1:
 RMSU=  1.86D-03    CP:  9.77D-01  1.43D+00
 E= -698.201624560603     Delta-E=       -0.227051257642 Rises=F Damp=F
 DIIS: error= 3.43D-02 at cycle   3 NSaved=   3.
 NSaved= 3 IEnMin= 3 EnMin= -698.201624560603     IErMin= 2 ErrMin= 1.24D-02
 ErrMax= 3.43D-02  0.00D+00 EMaxC= 1.00D-01 BMatC= 1.42D-01 BMatP= 7.60D-02
 IDIUse=2 WtCom= 0.00D+00 WtEn= 1.00D+00
 Coeff-En:   0.669D-02 0.000D+00 0.993D+00
 Coeff:      0.669D-02 0.000D+00 0.993D+00
 Gap=     0.252 Goal=   None    Shift=    0.000
 RMSDP=5.12D-03 MaxDP=2.70D-01 DE=-2.27D-01 OVMax= 5.70D-01

 Cycle   4  Pass 0  IDiag  1:
 RMSU=  2.66D-03    CP:  9.90D-01  1.99D+00 -1.28D+00
 E= -697.008829933364     Delta-E=        1.192794627239 Rises=F Damp=F
 DIIS: error= 9.10D-02 at cycle   4 NSaved=   4.
 NSaved= 4 IEnMin= 3 EnMin= -698.201624560603     IErMin= 2 ErrMin= 1.24D-02
 ErrMax= 9.10D-02  0.00D+00 EMaxC= 1.00D-01 BMatC= 1.58D+00 BMatP= 7.60D-02
 IDIUse=2 WtCom= 0.00D+00 WtEn= 1.00D+00
 Coeff-En:   0.000D+00 0.000D+00 0.853D+00 0.147D+00
 Coeff:      0.000D+00 0.000D+00 0.853D+00 0.147D+00
 Gap=     0.190 Goal=   None    Shift=    0.000
 RMSDP=3.10D-03 MaxDP=1.57D-01 DE= 1.19D+00 OVMax= 3.01D-01

 Cycle   5  Pass 0  IDiag  1:
 RMSU=  7.11D-04    CP:  9.87D-01  1.45D+00 -1.55D-01  2.80D-01
 E= -698.184672760766     Delta-E=       -1.175842827402 Rises=F Damp=F
 DIIS: error= 2.96D-02 at cycle   5 NSaved=   5.
 NSaved= 5 IEnMin= 3 EnMin= -698.201624560603     IErMin= 2 ErrMin= 1.24D-02
 ErrMax= 2.96D-02  0.00D+00 EMaxC= 1.00D-01 BMatC= 1.72D-01 BMatP= 7.60D-02
 IDIUse=2 WtCom= 0.00D+00 WtEn= 1.00D+00
 Coeff-En:   0.000D+00 0.000D+00 0.522D+00 0.000D+00 0.478D+00
 Coeff:      0.000D+00 0.000D+00 0.522D+00 0.000D+00 0.478D+00
 Gap=     0.188 Goal=   None    Shift=    0.000
 RMSDP=1.23D-03 MaxDP=7.12D-02 DE=-1.18D+00 OVMax= 1.36D-01

 Cycle   6  Pass 0  IDiag  1:
 RMSU=  1.77D-04    CP:  9.83D-01  1.39D+00  4.18D-01  9.60D-02  5.71D-01
 E= -698.323474474931     Delta-E=       -0.138801714165 Rises=F Damp=F
 DIIS: error= 1.39D-03 at cycle   6 NSaved=   6.
 NSaved= 6 IEnMin= 6 EnMin= -698.323474474931     IErMin= 6 ErrMin= 1.39D-03
 ErrMax= 1.39D-03  0.00D+00 EMaxC= 1.00D-01 BMatC= 8.51D-04 BMatP= 7.60D-02
 IDIUse=3 WtCom= 9.86D-01 WtEn= 1.39D-02
 Coeff-Com: -0.253D-01 0.426D-01 0.203D+00-0.340D-01 0.277D+00 0.536D+00
 Coeff-En:   0.000D+00 0.000D+00 0.000D+00 0.000D+00 0.000D+00 0.100D+01
 Coeff:     -0.249D-01 0.420D-01 0.201D+00-0.336D-01 0.273D+00 0.543D+00
 Gap=     0.190 Goal=   None    Shift=    0.000
 RMSDP=1.44D-04 MaxDP=8.08D-03 DE=-1.39D-01 OVMax= 1.29D-02

 Cycle   7  Pass 0  IDiag  1:
 RMSU=  8.78D-05    CP:  9.82D-01  1.42D+00  4.08D-01  1.14D-01  6.15D-01
                    CP:  5.70D-01
 E= -698.323793979889     Delta-E=       -0.000319504958 Rises=F Damp=F
 DIIS: error= 1.41D-03 at cycle   7 NSaved=   7.
 NSaved= 7 IEnMin= 7 EnMin= -698.323793979889     IErMin= 6 ErrMin= 1.39D-03
 ErrMax= 1.41D-03  0.00D+00 EMaxC= 1.00D-01 BMatC= 5.23D-04 BMatP= 8.51D-04
 IDIUse=3 WtCom= 9.86D-01 WtEn= 1.39D-02
 Coeff-Com: -0.951D-02 0.129D-01 0.718D-01-0.147D-01 0.926D-01 0.385D+00
 Coeff-Com:  0.461D+00
 Coeff-En:   0.000D+00 0.000D+00 0.000D+00 0.000D+00 0.000D+00 0.377D+00
 Coeff-En:   0.623D+00
 Coeff:     -0.938D-02 0.127D-01 0.708D-01-0.144D-01 0.913D-01 0.385D+00
 Coeff:      0.464D+00
 Gap=     0.191 Goal=   None    Shift=    0.000
 RMSDP=7.35D-05 MaxDP=3.80D-03 DE=-3.20D-04 OVMax= 6.12D-03

 Cycle   8  Pass 0  IDiag  1:
 RMSU=  3.55D-05    CP:  9.83D-01  1.42D+00  4.17D-01  1.04D-01  6.07D-01
                    CP:  6.45D-01  3.74D-01
 E= -698.324162330679     Delta-E=       -0.000368350791 Rises=F Damp=F
 DIIS: error= 4.02D-04 at cycle   8 NSaved=   8.
 NSaved= 8 IEnMin= 8 EnMin= -698.324162330679     IErMin= 8 ErrMin= 4.02D-04
 ErrMax= 4.02D-04  0.00D+00 EMaxC= 1.00D-01 BMatC= 5.45D-05 BMatP= 5.23D-04
 IDIUse=3 WtCom= 9.96D-01 WtEn= 4.02D-03
 Coeff-Com:  0.205D-02-0.586D-02 0.104D-01-0.667D-03 0.199D-03 0.180D+00
 Coeff-Com:  0.284D+00 0.530D+00
 Coeff-En:   0.000D+00 0.000D+00 0.000D+00 0.000D+00 0.000D+00 0.000D+00
 Coeff-En:   0.000D+00 0.100D+01
 Coeff:      0.205D-02-0.584D-02 0.104D-01-0.664D-03 0.198D-03 0.179D+00
 Coeff:      0.283D+00 0.532D+00
 Gap=     0.191 Goal=   None    Shift=    0.000
 RMSDP=2.67D-05 MaxDP=1.37D-03 DE=-3.68D-04 OVMax= 1.42D-03

 Cycle   9  Pass 0  IDiag  1:
 RMSU=  7.68D-06    CP:  9.82D-01  1.41D+00  4.23D-01  1.04D-01  5.97D-01
                    CP:  6.82D-01  4.75D-01  5.21D-01
 E= -698.324203810581     Delta-E=       -0.000041479901 Rises=F Damp=F
 DIIS: error= 5.91D-05 at cycle   9 NSaved=   9.
 NSaved= 9 IEnMin= 9 EnMin= -698.324203810581     IErMin= 9 ErrMin= 5.91D-05
 ErrMax= 5.91D-05  0.00D+00 EMaxC= 1.00D-01 BMatC= 1.30D-06 BMatP= 5.45D-05
 IDIUse=1 WtCom= 1.00D+00 WtEn= 0.00D+00
 Coeff-Com:  0.128D-02-0.263D-02 0.370D-02 0.463D-04-0.312D-02 0.784D-01
 Coeff-Com:  0.136D+00 0.292D+00 0.494D+00
 Coeff:      0.128D-02-0.263D-02 0.370D-02 0.463D-04-0.312D-02 0.784D-01
 Coeff:      0.136D+00 0.292D+00 0.494D+00
 Gap=     0.191 Goal=   None    Shift=    0.000
 RMSDP=4.23D-06 MaxDP=1.60D-04 DE=-4.15D-05 OVMax= 1.68D-04

 Initial convergence to 1.0D-05 achieved.  Increase integral accuracy.
 Cycle  10  Pass 1  IDiag  1:
 E= -698.324218427103     Delta-E=       -0.000014616522 Rises=F Damp=F
 DIIS: error= 2.35D-05 at cycle   1 NSaved=   1.
 NSaved= 1 IEnMin= 1 EnMin= -698.324218427103     IErMin= 1 ErrMin= 2.35D-05
 ErrMax= 2.35D-05  0.00D+00 EMaxC= 1.00D-01 BMatC= 1.92D-07 BMatP= 1.92D-07
 IDIUse=1 WtCom= 1.00D+00 WtEn= 0.00D+00
 Coeff-Com:  0.100D+01
 Coeff:      0.100D+01
 Gap=     0.191 Goal=   None    Shift=    0.000
 RMSDP=4.23D-06 MaxDP=1.60D-04 DE=-1.46D-05 OVMax= 1.54D-04

 Cycle  11  Pass 1  IDiag  1:
 RMSU=  7.69D-06    CP:  1.00D+00
 E= -698.324218411044     Delta-E=        0.000000016058 Rises=F Damp=F
 DIIS: error= 3.27D-05 at cycle   2 NSaved=   2.
 NSaved= 2 IEnMin= 1 EnMin= -698.324218427103     IErMin= 1 ErrMin= 2.35D-05
 ErrMax= 3.27D-05  0.00D+00 EMaxC= 1.00D-01 BMatC= 2.44D-07 BMatP= 1.92D-07
 IDIUse=1 WtCom= 1.00D+00 WtEn= 0.00D+00
 Coeff-Com:  0.538D+00 0.462D+00
 Coeff:      0.538D+00 0.462D+00
 Gap=     0.191 Goal=   None    Shift=    0.000
 RMSDP=2.33D-06 MaxDP=1.19D-04 DE= 1.61D-08 OVMax= 1.86D-04

 Cycle  12  Pass 1  IDiag  1:
 RMSU=  2.24D-06    CP:  1.00D+00  9.18D-01
 E= -698.324218548419     Delta-E=       -0.000000137374 Rises=F Damp=F
 DIIS: error= 2.69D-05 at cycle   3 NSaved=   3.
 NSaved= 3 IEnMin= 3 EnMin= -698.324218548419     IErMin= 1 ErrMin= 2.35D-05
 ErrMax= 2.69D-05  0.00D+00 EMaxC= 1.00D-01 BMatC= 9.80D-08 BMatP= 1.92D-07
 IDIUse=1 WtCom= 1.00D+00 WtEn= 0.00D+00
 Coeff-Com:  0.167D+00 0.362D+00 0.471D+00
 Coeff:      0.167D+00 0.362D+00 0.471D+00
 Gap=     0.191 Goal=   None    Shift=    0.000
 RMSDP=1.32D-06 MaxDP=9.34D-05 DE=-1.37D-07 OVMax= 1.56D-04

 Cycle  13  Pass 1  IDiag  1:
 RMSU=  9.87D-07    CP:  1.00D+00  9.32D-01  6.15D-01
 E= -698.324218600282     Delta-E=       -0.000000051863 Rises=F Damp=F
 DIIS: error= 1.19D-05 at cycle   4 NSaved=   4.
 NSaved= 4 IEnMin= 4 EnMin= -698.324218600282     IErMin= 4 ErrMin= 1.19D-05
 ErrMax= 1.19D-05  0.00D+00 EMaxC= 1.00D-01 BMatC= 3.09D-08 BMatP= 9.80D-08
 IDIUse=1 WtCom= 1.00D+00 WtEn= 0.00D+00
 Coeff-Com:  0.104D-01 0.190D+00 0.391D+00 0.409D+00
 Coeff:      0.104D-01 0.190D+00 0.391D+00 0.409D+00
 Gap=     0.191 Goal=   None    Shift=    0.000
 RMSDP=5.62D-07 MaxDP=3.09D-05 DE=-5.19D-08 OVMax= 5.91D-05

 Cycle  14  Pass 1  IDiag  1:
 RMSU=  1.61D-07    CP:  1.00D+00  9.37D-01  6.59D-01  4.65D-01
 E= -698.324218625450     Delta-E=       -0.000000025168 Rises=F Damp=F
 DIIS: error= 1.32D-06 at cycle   5 NSaved=   5.
 NSaved= 5 IEnMin= 5 EnMin= -698.324218625450     IErMin= 5 ErrMin= 1.32D-06
 ErrMax= 1.32D-06  0.00D+00 EMaxC= 1.00D-01 BMatC= 8.11D-10 BMatP= 3.09D-08
 IDIUse=1 WtCom= 1.00D+00 WtEn= 0.00D+00
 Coeff-Com:  0.136D-02 0.112D+00 0.240D+00 0.264D+00 0.382D+00
 Coeff:      0.136D-02 0.112D+00 0.240D+00 0.264D+00 0.382D+00
 Gap=     0.191 Goal=   None    Shift=    0.000
 RMSDP=1.07D-07 MaxDP=4.46D-06 DE=-2.52D-08 OVMax= 4.55D-06

 Cycle  15  Pass 1  IDiag  1:
 RMSU=  4.10D-08    CP:  1.00D+00  9.38D-01  6.54D-01  4.49D-01  4.04D-01
 E= -698.324218626052     Delta-E=       -0.000000000602 Rises=F Damp=F
 DIIS: error= 2.04D-07 at cycle   6 NSaved=   6.
 NSaved= 6 IEnMin= 6 EnMin= -698.324218626052     IErMin= 6 ErrMin= 2.04D-07
 ErrMax= 2.04D-07  0.00D+00 EMaxC= 1.00D-01 BMatC= 2.48D-11 BMatP= 8.11D-10
 IDIUse=1 WtCom= 1.00D+00 WtEn= 0.00D+00
 Coeff-Com:  0.474D-04 0.474D-01 0.103D+00 0.114D+00 0.212D+00 0.524D+00
 Coeff:      0.474D-04 0.474D-01 0.103D+00 0.114D+00 0.212D+00 0.524D+00
 Gap=     0.191 Goal=   None    Shift=    0.000
 RMSDP=2.20D-08 MaxDP=6.55D-07 DE=-6.02D-10 OVMax= 9.33D-07

 Cycle  16  Pass 1  IDiag  1:
 RMSU=  9.46D-09    CP:  1.00D+00  9.38D-01  6.56D-01  4.47D-01  4.16D-01
                    CP:  5.26D-01
 E= -698.324218626079     Delta-E=       -0.000000000027 Rises=F Damp=F
 DIIS: error= 5.23D-08 at cycle   7 NSaved=   7.
 NSaved= 7 IEnMin= 7 EnMin= -698.324218626079     IErMin= 7 ErrMin= 5.23D-08
 ErrMax= 5.23D-08  0.00D+00 EMaxC= 1.00D-01 BMatC= 1.83D-12 BMatP= 2.48D-11
 IDIUse=1 WtCom= 1.00D+00 WtEn= 0.00D+00
 Coeff-Com: -0.533D-04 0.215D-01 0.471D-01 0.520D-01 0.103D+00 0.303D+00
 Coeff-Com:  0.473D+00
 Coeff:     -0.533D-04 0.215D-01 0.471D-01 0.520D-01 0.103D+00 0.303D+00
 Coeff:      0.473D+00
 Gap=     0.191 Goal=   None    Shift=    0.000
 RMSDP=5.41D-09 MaxDP=2.55D-07 DE=-2.71D-11 OVMax= 2.29D-07

 SCF Done:  E(RB-LYP) =  -698.324218626     A.U. after   16 cycles
            NFock= 16  Conv=0.54D-08     -V/T= 2.0098
 KE= 6.915641918766D+02 PE=-3.860624421922D+03 EE= 1.352848148855D+03
 Leave Link  502 at Sat Jan 21 11:34:02 2023, MaxMem=   131072000 cpu:             297.4 elap:              37.4
 (Enter /dragofs/sw/campus/0.2/software/gaussian/16.gaussian/gaussian/g16_legacy/l801.exe)
 DoSCS=F DFT=T ScalE2(SS,OS)=  1.000000  1.000000
 Range of M.O.s used for correlation:     1   277
 NBasis=   277 NAE=    61 NBE=    61 NFC=     0 NFV=     0
 NROrb=    277 NOA=    61 NOB=    61 NVA=   216 NVB=   216
 Leave Link  801 at Sat Jan 21 11:34:02 2023, MaxMem=   131072000 cpu:               0.1 elap:               0.0
 (Enter /dragofs/sw/campus/0.2/software/gaussian/16.gaussian/gaussian/g16_legacy/l1101.exe)
 Using compressed storage, NAtomX=    41.
 Will process     42 centers per pass.
 R6Disp: Adding Grimme-D3 dispersion energy 1st derivatives to the gradient.
 Leave Link 1101 at Sat Jan 21 11:34:02 2023, MaxMem=   131072000 cpu:               1.8 elap:               0.2
 (Enter /dragofs/sw/campus/0.2/software/gaussian/16.gaussian/gaussian/g16_legacy/l1102.exe)
 Symmetrizing basis deriv contribution to polar:
 IMax=3 JMax=2 DiffMx= 0.00D+00
 Leave Link 1102 at Sat Jan 21 11:34:02 2023, MaxMem=   131072000 cpu:               0.3 elap:               0.1
 (Enter /dragofs/sw/campus/0.2/software/gaussian/16.gaussian/gaussian/g16_legacy/l1110.exe)
 Forming Gx(P) for the SCF density, NAtomX=    41.
 Integral derivatives from FoFJK, PRISM(SPDF).
 Do as many integral derivatives as possible in FoFJK.
 G2DrvN: MDV=     131068912.
 G2DrvN: will do    42 centers at a time, making    1 passes.
 Calling FoFCou, ICntrl=  3507 FMM=F I1Cent=   0 AccDes= 0.00D+00.
 FoFJK:  IHMeth= 1 ICntrl=    3507 DoSepK=F KAlg= 0 I1Cent=           0 FoldK=F
 IRaf=         0 NMat=       1 IRICut=       1 DoRegI=T DoRafI=F ISym2E= 0 IDoP0=0 IntGTp=1.
 FoFCou: FMM=F IPFlag=           0 FMFlag=      100000 FMFlg1=           0
         NFxFlg=           0 DoJE=F BraDBF=F KetDBF=F FulRan=T
         wScrn=  0.000000 ICntrl=      3507 IOpCl=  0 I1Cent=           0 NGrid=           0
         NMat0=    1 NMatS0=      1 NMatT0=    0 NMatD0=    1 NMtDS0=    0 NMtDT0=    0
 Symmetry not used in FoFCou.
 End of G2Drv F.D. properties file   721 does not exist.
 End of G2Drv F.D. properties file   722 does not exist.
 End of G2Drv F.D. properties file   788 does not exist.
 Leave Link 1110 at Sat Jan 21 11:37:03 2023, MaxMem=   131072000 cpu:            1443.7 elap:             181.3
 (Enter /dragofs/sw/campus/0.2/software/gaussian/16.gaussian/gaussian/g16_legacy/l1002.exe)
 Minotr:  Closed shell wavefunction.
          IDoAtm=11111111111111111111111111111111111111111
          Direct CPHF calculation.
          Differentiating once with respect to electric field.
                with respect to dipole field.
          Differentiating once with respect to nuclear coordinates.
          Requested convergence is 1.0D-08 RMS, and 1.0D-07 maximum.
          Secondary convergence is 1.0D-12 RMS, and 1.0D-12 maximum.
          NewPWx=T KeepS1=F KeepF1=F KeepIn=T MapXYZ=F SortEE=F KeepMc=T.
        12352 words used for storage of precomputed grid.
 Two-electron integrals replicated using symmetry.
          MDV=     131072000 using IRadAn=       1.
          Solving linear equations simultaneously, MaxMat=     384.
 FoF2E skips out because all densities are zero.
 CalDSu exits because no D1Ps are significant.
 FoFJK:  IHMeth= 1 ICntrl=     500 DoSepK=F KAlg= 0 I1Cent=           0 FoldK=F
 IRaf= 830000000 NMat=     123 IRICut=       1 DoRegI=T DoRafI=F ISym2E= 2 IDoP0=0 IntGTp=1.
 FoFCou: FMM=F IPFlag=           0 FMFlag=      100000 FMFlg1=           0
         NFxFlg=           0 DoJE=F BraDBF=F KetDBF=F FulRan=T
         wScrn=  0.000000 ICntrl=       500 IOpCl=  0 I1Cent=           0 NGrid=           0
         NMat0=  123 NMatS0=    123 NMatT0=    0 NMatD0=  123 NMtDS0=    0 NMtDT0=    0
 Integrals replicated using symmetry in FoFCou.
          There are   126 degrees of freedom in the 1st order CPHF.  IDoFFX=6 NUNeed=     3.
    123 vectors produced by pass  0 Test12= 1.32D-14 1.00D-09 XBig12= 1.32D+02 3.66D+00.
 AX will form   123 AO Fock derivatives at one time.
    123 vectors produced by pass  1 Test12= 1.32D-14 1.00D-09 XBig12= 3.64D+01 1.74D+00.
    123 vectors produced by pass  2 Test12= 1.32D-14 1.00D-09 XBig12= 1.78D-01 3.99D-02.
    123 vectors produced by pass  3 Test12= 1.32D-14 1.00D-09 XBig12= 8.34D-05 6.01D-04.
     79 vectors produced by pass  4 Test12= 1.32D-14 1.00D-09 XBig12= 5.36D-09 4.21D-06.
      3 vectors produced by pass  5 Test12= 1.32D-14 1.00D-09 XBig12= 2.91D-13 5.06D-08.
 InvSVY:  IOpt=1 It=  1 EMax= 7.11D-15
 Solved reduced A of dimension   574 with   126 vectors.
 FullF1:  Do perturbations      1 to       3.
 Isotropic polarizability for W=    0.000000      143.52 Bohr**3.
 End of Minotr F.D. properties file   721 does not exist.
 End of Minotr F.D. properties file   722 does not exist.
 End of Minotr F.D. properties file   788 does not exist.
 Leave Link 1002 at Sat Jan 21 11:39:47 2023, MaxMem=   131072000 cpu:            1305.8 elap:             164.0
 (Enter /dragofs/sw/campus/0.2/software/gaussian/16.gaussian/gaussian/g16_legacy/l601.exe)
 Copying SCF densities to generalized density rwf, IOpCl= 0 IROHF=0.

 **********************************************************************

            Population analysis using the SCF density.

 **********************************************************************

 Orbital symmetries:
       Occupied  (A) (A) (A) (A) (A) (A) (A) (A) (A) (A) (A) (A)
                 (A) (A) (A) (A) (A) (A) (A) (A) (A) (A) (A) (A)
                 (A) (A) (A) (A) (A) (A) (A) (A) (A) (A) (A) (A)
                 (A) (A) (A) (A) (A) (A) (A) (A) (A) (A) (A) (A)
                 (A) (A) (A) (A) (A) (A) (A) (A) (A) (A) (A) (A)
                 (A)
       Virtual   (A) (A) (A) (A) (A) (A) (A) (A) (A) (A) (A) (A)
                 (A) (A) (A) (A) (A) (A) (A) (A) (A) (A) (A) (A)
                 (A) (A) (A) (A) (A) (A) (A) (A) (A) (A) (A) (A)
                 (A) (A) (A) (A) (A) (A) (A) (A) (A) (A) (A) (A)
                 (A) (A) (A) (A) (A) (A) (A) (A) (A) (A) (A) (A)
                 (A) (A) (A) (A) (A) (A) (A) (A) (A) (A) (A) (A)
                 (A) (A) (A) (A) (A) (A) (A) (A) (A) (A) (A) (A)
                 (A) (A) (A) (A) (A) (A) (A) (A) (A) (A) (A) (A)
                 (A) (A) (A) (A) (A) (A) (A) (A) (A) (A) (A) (A)
                 (A) (A) (A) (A) (A) (A) (A) (A) (A) (A) (A) (A)
                 (A) (A) (A) (A) (A) (A) (A) (A) (A) (A) (A) (A)
                 (A) (A) (A) (A) (A) (A) (A) (A) (A) (A) (A) (A)
                 (A) (A) (A) (A) (A) (A) (A) (A) (A) (A) (A) (A)
                 (A) (A) (A) (A) (A) (A) (A) (A) (A) (A) (A) (A)
                 (A) (A) (A) (A) (A) (A) (A) (A) (A) (A) (A) (A)
                 (A) (A) (A) (A) (A) (A) (A) (A) (A) (A) (A) (A)
                 (A) (A) (A) (A) (A) (A) (A) (A) (A) (A) (A) (A)
                 (A) (A) (A) (A) (A) (A) (A) (A) (A) (A) (A) (A)
 The electronic state is 1-A.
 Alpha  occ. eigenvalues --  -18.82258 -18.79170 -18.77089 -10.03522  -9.96775
 Alpha  occ. eigenvalues --   -9.96753  -9.92660  -9.92346  -9.92288  -9.92277
 Alpha  occ. eigenvalues --   -9.92211  -9.91621  -9.91551  -9.91038  -9.90160
 Alpha  occ. eigenvalues --   -0.97114  -0.90997  -0.89463  -0.71743  -0.70194
 Alpha  occ. eigenvalues --   -0.66769  -0.66519  -0.65728  -0.60211  -0.59674
 Alpha  occ. eigenvalues --   -0.55359  -0.53146  -0.51348  -0.50354  -0.46413
 Alpha  occ. eigenvalues --   -0.45229  -0.42160  -0.40621  -0.40471  -0.40096
 Alpha  occ. eigenvalues --   -0.39005  -0.37786  -0.37414  -0.36129  -0.35947
 Alpha  occ. eigenvalues --   -0.35539  -0.35221  -0.34728  -0.34184  -0.32503
 Alpha  occ. eigenvalues --   -0.31881  -0.31444  -0.31336  -0.30833  -0.30583
 Alpha  occ. eigenvalues --   -0.30083  -0.29135  -0.28872  -0.28307  -0.28040
 Alpha  occ. eigenvalues --   -0.27564  -0.26537  -0.25922  -0.23342  -0.20796
 Alpha  occ. eigenvalues --   -0.20159
 Alpha virt. eigenvalues --   -0.01015   0.02310   0.05873   0.07119   0.07750
 Alpha virt. eigenvalues --    0.08752   0.09451   0.09878   0.10752   0.11067
 Alpha virt. eigenvalues --    0.11777   0.12473   0.13075   0.13249   0.13956
 Alpha virt. eigenvalues --    0.14218   0.14355   0.14959   0.15272   0.15607
 Alpha virt. eigenvalues --    0.16627   0.17175   0.17341   0.17750   0.18117
 Alpha virt. eigenvalues --    0.18377   0.19584   0.20060   0.20395   0.20521
 Alpha virt. eigenvalues --    0.20997   0.21433   0.21913   0.23552   0.24313
 Alpha virt. eigenvalues --    0.24960   0.25248   0.26746   0.27574   0.35089
 Alpha virt. eigenvalues --    0.43885   0.45261   0.46718   0.47345   0.48197
 Alpha virt. eigenvalues --    0.48778   0.50175   0.50627   0.51290   0.52830
 Alpha virt. eigenvalues --    0.52847   0.53592   0.54117   0.56001   0.56714
 Alpha virt. eigenvalues --    0.57647   0.58048   0.59231   0.59448   0.59886
 Alpha virt. eigenvalues --    0.61611   0.62387   0.62548   0.63542   0.65490
 Alpha virt. eigenvalues --    0.66462   0.68332   0.71064   0.72355   0.73392
 Alpha virt. eigenvalues --    0.74042   0.75055   0.76041   0.77254   0.78529
 Alpha virt. eigenvalues --    0.79075   0.80548   0.80893   0.81546   0.82316
 Alpha virt. eigenvalues --    0.82945   0.83437   0.84277   0.84519   0.85013
 Alpha virt. eigenvalues --    0.86087   0.86280   0.86856   0.87175   0.87749
 Alpha virt. eigenvalues --    0.88501   0.89175   0.90022   0.90394   0.91770
 Alpha virt. eigenvalues --    0.92173   0.93100   0.93582   0.93845   0.95633
 Alpha virt. eigenvalues --    0.96135   0.97653   0.99679   1.01133   1.03669
 Alpha virt. eigenvalues --    1.04425   1.06369   1.08044   1.09072   1.11665
 Alpha virt. eigenvalues --    1.13804   1.18535   1.19163   1.22068   1.23593
 Alpha virt. eigenvalues --    1.26216   1.31016   1.32187   1.34916   1.35966
 Alpha virt. eigenvalues --    1.37736   1.39609   1.41159   1.44248   1.47270
 Alpha virt. eigenvalues --    1.48604   1.49389   1.51683   1.54741   1.56975
 Alpha virt. eigenvalues --    1.58770   1.61103   1.61470   1.65368   1.66103
 Alpha virt. eigenvalues --    1.67963   1.71490   1.73239   1.73873   1.74924
 Alpha virt. eigenvalues --    1.76259   1.78495   1.79999   1.81001   1.81641
 Alpha virt. eigenvalues --    1.83417   1.84458   1.86173   1.87042   1.87222
 Alpha virt. eigenvalues --    1.89018   1.89412   1.91347   1.92133   1.93182
 Alpha virt. eigenvalues --    1.94093   1.94903   1.96163   1.97090   1.99845
 Alpha virt. eigenvalues --    2.00635   2.02794   2.05625   2.07519   2.11130
 Alpha virt. eigenvalues --    2.12085   2.14079   2.14755   2.15932   2.18974
 Alpha virt. eigenvalues --    2.19761   2.20983   2.24425   2.24712   2.25722
 Alpha virt. eigenvalues --    2.26603   2.27208   2.28688   2.30569   2.32736
 Alpha virt. eigenvalues --    2.33774   2.35150   2.36400   2.37028   2.42457
 Alpha virt. eigenvalues --    2.47334   2.48773   2.49252   2.52602   2.53963
 Alpha virt. eigenvalues --    2.57810   2.62364   2.63223   2.65305   2.69089
 Alpha virt. eigenvalues --    2.72127   2.72869   2.83920   2.90307   2.96944
 Alpha virt. eigenvalues --    3.03681   3.74265   3.93330   3.98992   4.04112
 Alpha virt. eigenvalues --    4.05790   4.10470   4.12347   4.13919   4.27846
 Alpha virt. eigenvalues --    4.30165   4.33858   4.37210   4.38719   4.48996
 Alpha virt. eigenvalues --    4.52588
          Condensed to atoms (all electrons):
               1          2          3          4          5          6
     1  H    0.597151   0.367097  -0.034460  -0.034912  -0.033342  -0.003677
     2  C    0.367097   5.089539   0.363986   0.370919   0.355905  -0.035134
     3  C   -0.034460   0.363986   4.984718  -0.027100  -0.024446   0.352350
     4  H   -0.034912   0.370919  -0.027100   0.526392  -0.029711   0.004738
     5  H   -0.033342   0.355905  -0.024446  -0.029711   0.614548  -0.003847
     6  H   -0.003677  -0.035134   0.352350   0.004738  -0.003847   0.642327
     7  H    0.005111  -0.036979   0.354747  -0.004078  -0.002604  -0.036811
     8  C   -0.004631  -0.030688   0.390895  -0.007063   0.003926  -0.034843
     9  C    0.000041   0.004462  -0.034181   0.000170  -0.000101  -0.002333
    10  H    0.004541  -0.007756  -0.052834   0.000251  -0.000041  -0.000679
    11  H    0.000003  -0.000094  -0.002787  -0.000002  -0.000008   0.004365
    12  H    0.000009  -0.000046  -0.007962   0.000010   0.000000   0.000046
    13  O   -0.000402  -0.001249  -0.050911   0.007109   0.000118   0.003410
    14  H   -0.000051   0.000041   0.007594  -0.000401   0.000004  -0.000326
    15  C    0.000000  -0.000139   0.004004  -0.000000   0.000001   0.000004
    16  H   -0.000001  -0.000001   0.000014   0.000000   0.000000   0.000005
    17  H    0.000000   0.000001  -0.000103   0.000000  -0.000000  -0.000002
    18  H    0.000000  -0.000002   0.000052  -0.000001  -0.000000   0.000003
    19  H   -0.000000   0.000000  -0.000000   0.000000  -0.000000   0.000000
    20  C   -0.000001  -0.000000   0.000000   0.000000   0.000000  -0.000000
    21  C    0.000091   0.000021  -0.000001  -0.000027  -0.000000   0.000000
    22  H   -0.000000   0.000000   0.000000   0.000000  -0.000000  -0.000000
    23  H    0.000000   0.000000   0.000000   0.000000  -0.000000   0.000000
    24  H    0.000002   0.000001  -0.000000   0.000000  -0.000000   0.000000
    25  H   -0.000002   0.000000  -0.000000   0.000002  -0.000000  -0.000000
    26  C   -0.000061   0.000338   0.000089  -0.000643  -0.000009   0.000001
    27  C   -0.000939  -0.000519   0.000008   0.000055   0.000014  -0.000006
    28  H   -0.000466   0.000171  -0.000849   0.002723   0.000010   0.000004
    29  H   -0.000012   0.000011  -0.000001   0.000000  -0.000000   0.000000
    30  H    0.004031  -0.000133  -0.000030  -0.000060  -0.000019   0.000004
    31  O    0.005883  -0.001208  -0.000000  -0.001928   0.000061  -0.000000
    32  C    0.000427   0.001994   0.000008   0.003082  -0.000039  -0.000000
    33  O   -0.000721  -0.003529   0.000055   0.009992   0.000035  -0.000000
    34  C   -0.000392  -0.000996   0.000034   0.000252  -0.000104  -0.000000
    35  H    0.000041   0.000002  -0.000000  -0.000004   0.000002  -0.000000
    36  H   -0.000021   0.000009  -0.000000   0.000024   0.000001   0.000000
    37  H    0.001248   0.002111  -0.000032  -0.000574   0.000776   0.000001
    38  C    0.000019  -0.000009   0.000013  -0.000002  -0.000000   0.000002
    39  H   -0.000003   0.000001   0.000001   0.000000   0.000000  -0.000000
    40  H   -0.000006   0.000028   0.000018  -0.000014   0.000000  -0.000002
    41  H    0.000001  -0.000000  -0.000001   0.000000   0.000000  -0.000000
               7          8          9         10         11         12
     1  H    0.005111  -0.004631   0.000041   0.004541   0.000003   0.000009
     2  C   -0.036979  -0.030688   0.004462  -0.007756  -0.000094  -0.000046
     3  C    0.354747   0.390895  -0.034181  -0.052834  -0.002787  -0.007962
     4  H   -0.004078  -0.007063   0.000170   0.000251  -0.000002   0.000010
     5  H   -0.002604   0.003926  -0.000101  -0.000041  -0.000008   0.000000
     6  H   -0.036811  -0.034843  -0.002333  -0.000679   0.004365   0.000046
     7  H    0.622767  -0.032447  -0.009387   0.007257   0.000274   0.007100
     8  C   -0.032447   4.748869   0.366743   0.339408  -0.027180  -0.031762
     9  C   -0.009387   0.366743   5.053768  -0.065924   0.333419   0.353031
    10  H    0.007257   0.339408  -0.065924   0.715283   0.001619   0.007238
    11  H    0.000274  -0.027180   0.333419   0.001619   0.643848  -0.034564
    12  H    0.007100  -0.031762   0.353031   0.007238  -0.034564   0.620091
    13  O    0.000510   0.239081  -0.042473  -0.045275   0.003694   0.001236
    14  H   -0.000107  -0.026671  -0.007124  -0.003363   0.000089  -0.000547
    15  C   -0.000009  -0.029804   0.366402  -0.007629  -0.037031  -0.039417
    16  H    0.000013  -0.004286  -0.034869   0.006752  -0.003630   0.005412
    17  H    0.000001   0.003579  -0.022891  -0.000022  -0.003270  -0.002106
    18  H    0.000017  -0.006106  -0.035061   0.000440   0.006158  -0.004257
    19  H    0.000000  -0.000000   0.000000   0.000000   0.000000   0.000000
    20  C    0.000000   0.000000  -0.000000   0.000000   0.000000   0.000000
    21  C   -0.000000  -0.000010   0.000000  -0.000005  -0.000000  -0.000000
    22  H    0.000000   0.000000   0.000000  -0.000000   0.000000   0.000000
    23  H    0.000000  -0.000000  -0.000000   0.000000  -0.000000   0.000000
    24  H    0.000000   0.000001  -0.000000  -0.000001  -0.000000   0.000000
    25  H    0.000000  -0.000001   0.000000  -0.000001  -0.000000  -0.000000
    26  C    0.000005   0.000072  -0.000040   0.000794   0.000002   0.000000
    27  C   -0.000005  -0.001190   0.000079  -0.001522  -0.000003  -0.000001
    28  H   -0.000022   0.000325   0.000239  -0.001732  -0.000009  -0.000002
    29  H    0.000000   0.000042  -0.000001  -0.000054   0.000000   0.000000
    30  H    0.000006  -0.000965  -0.000037   0.007387   0.000004   0.000001
    31  O   -0.000001   0.000002  -0.000000  -0.000081  -0.000000  -0.000000
    32  C    0.000001  -0.000003  -0.000000  -0.000011   0.000000  -0.000000
    33  O   -0.000000   0.000002  -0.000000   0.000000   0.000000  -0.000000
    34  C   -0.000001  -0.000001   0.000000  -0.000000  -0.000000  -0.000000
    35  H    0.000000   0.000000  -0.000000  -0.000000   0.000000   0.000000
    36  H    0.000000   0.000000  -0.000000   0.000000   0.000000   0.000000
    37  H    0.000001   0.000000  -0.000000   0.000000   0.000000   0.000000
    38  C    0.000000  -0.001426   0.000031   0.003780   0.000002   0.000002
    39  H    0.000000   0.000024  -0.000010   0.000056  -0.000001   0.000000
    40  H   -0.000003   0.003040  -0.000730  -0.004372  -0.000018  -0.000016
    41  H    0.000000   0.000015   0.000001   0.000028   0.000000   0.000000
              13         14         15         16         17         18
     1  H   -0.000402  -0.000051   0.000000  -0.000001   0.000000   0.000000
     2  C   -0.001249   0.000041  -0.000139  -0.000001   0.000001  -0.000002
     3  C   -0.050911   0.007594   0.004004   0.000014  -0.000103   0.000052
     4  H    0.007109  -0.000401  -0.000000   0.000000   0.000000  -0.000001
     5  H    0.000118   0.000004   0.000001   0.000000  -0.000000  -0.000000
     6  H    0.003410  -0.000326   0.000004   0.000005  -0.000002   0.000003
     7  H    0.000510  -0.000107  -0.000009   0.000013   0.000001   0.000017
     8  C    0.239081  -0.026671  -0.029804  -0.004286   0.003579  -0.006106
     9  C   -0.042473  -0.007124   0.366402  -0.034869  -0.022891  -0.035061
    10  H   -0.045275  -0.003363  -0.007629   0.006752  -0.000022   0.000440
    11  H    0.003694   0.000089  -0.037031  -0.003630  -0.003270   0.006158
    12  H    0.001236  -0.000547  -0.039417   0.005412  -0.002106  -0.004257
    13  O    8.240228   0.212201  -0.004372  -0.000383   0.000134   0.004669
    14  H    0.212201   0.415783   0.006136  -0.000416  -0.000237   0.007806
    15  C   -0.004372   0.006136   5.080788   0.366889   0.364635   0.358305
    16  H   -0.000383  -0.000416   0.366889   0.591848  -0.030184  -0.035192
    17  H    0.000134  -0.000237   0.364635  -0.030184   0.583157  -0.031082
    18  H    0.004669   0.007806   0.358305  -0.035192  -0.031082   0.612262
    19  H   -0.000000   0.000000  -0.000000  -0.000000  -0.000000  -0.000000
    20  C   -0.000001   0.000001  -0.000000  -0.000000   0.000000   0.000000
    21  C    0.000099  -0.000049   0.000000   0.000000  -0.000000  -0.000000
    22  H   -0.000000  -0.000000   0.000000   0.000000  -0.000000   0.000000
    23  H    0.000000  -0.000000   0.000000   0.000000   0.000000  -0.000000
    24  H    0.000000  -0.000007   0.000000   0.000000  -0.000000   0.000000
    25  H    0.000013   0.000053  -0.000000  -0.000000  -0.000000  -0.000000
    26  C   -0.009416   0.001283  -0.000002   0.000003  -0.000000   0.000007
    27  C    0.001381  -0.000244   0.000020  -0.000070  -0.000000  -0.000003
    28  H    0.027745  -0.001959  -0.000009  -0.000008   0.000000  -0.000038
    29  H   -0.000002   0.000009  -0.000000   0.000001   0.000000   0.000000
    30  H   -0.000114  -0.000039   0.000012  -0.000004  -0.000000   0.000002
    31  O    0.000052  -0.000006   0.000000  -0.000000   0.000000  -0.000000
    32  C   -0.000047   0.000002   0.000000  -0.000000   0.000000   0.000000
    33  O   -0.000033  -0.000000   0.000000  -0.000000   0.000000   0.000000
    34  C   -0.000000  -0.000000  -0.000000  -0.000000   0.000000   0.000000
    35  H    0.000000   0.000000   0.000000   0.000000  -0.000000  -0.000000
    36  H   -0.000000   0.000000   0.000000   0.000000  -0.000000  -0.000000
    37  H    0.000000   0.000000   0.000000   0.000000  -0.000000   0.000000
    38  C   -0.003133   0.000225  -0.000808   0.000653   0.000013  -0.000005
    39  H    0.000028  -0.000085  -0.000090   0.000941  -0.000000  -0.000009
    40  H    0.005621   0.008911   0.001359   0.001120   0.000005  -0.000028
    41  H    0.000018  -0.000050   0.000022  -0.000016  -0.000000   0.000001
              19         20         21         22         23         24
     1  H   -0.000000  -0.000001   0.000091  -0.000000   0.000000   0.000002
     2  C    0.000000  -0.000000   0.000021   0.000000   0.000000   0.000001
     3  C   -0.000000   0.000000  -0.000001   0.000000   0.000000  -0.000000
     4  H    0.000000   0.000000  -0.000027   0.000000   0.000000   0.000000
     5  H   -0.000000   0.000000  -0.000000  -0.000000  -0.000000  -0.000000
     6  H    0.000000  -0.000000   0.000000  -0.000000   0.000000   0.000000
     7  H    0.000000   0.000000  -0.000000   0.000000   0.000000   0.000000
     8  C   -0.000000   0.000000  -0.000010   0.000000  -0.000000   0.000001
     9  C    0.000000  -0.000000   0.000000   0.000000  -0.000000  -0.000000
    10  H    0.000000   0.000000  -0.000005  -0.000000   0.000000  -0.000001
    11  H    0.000000   0.000000  -0.000000   0.000000  -0.000000  -0.000000
    12  H    0.000000   0.000000  -0.000000   0.000000   0.000000   0.000000
    13  O   -0.000000  -0.000001   0.000099  -0.000000   0.000000   0.000000
    14  H    0.000000   0.000001  -0.000049  -0.000000  -0.000000  -0.000007
    15  C   -0.000000  -0.000000   0.000000   0.000000   0.000000   0.000000
    16  H   -0.000000  -0.000000   0.000000   0.000000   0.000000   0.000000
    17  H   -0.000000   0.000000  -0.000000  -0.000000   0.000000  -0.000000
    18  H   -0.000000   0.000000  -0.000000   0.000000  -0.000000   0.000000
    19  H    0.581953   0.373562  -0.036829  -0.033396  -0.031396  -0.003160
    20  C    0.373562   5.046472   0.370135   0.369726   0.365932  -0.037180
    21  C   -0.036829   0.370135   5.043880  -0.032825  -0.026084   0.359323
    22  H   -0.033396   0.369726  -0.032825   0.598819  -0.032915   0.004736
    23  H   -0.031396   0.365932  -0.026084  -0.032915   0.596547  -0.003475
    24  H   -0.003160  -0.037180   0.359323   0.004736  -0.003475   0.579452
    25  H    0.005484  -0.036164   0.346912  -0.005533  -0.001907  -0.033587
    26  C   -0.007076  -0.035452   0.361937  -0.004980   0.004064  -0.029125
    27  C   -0.001071  -0.007488  -0.048419   0.003049   0.000183   0.005564
    28  H    0.000301   0.004577  -0.043363  -0.000037  -0.000113  -0.004198
    29  H    0.000966   0.005728  -0.011438   0.002544  -0.000130  -0.000048
    30  H   -0.000043   0.000003   0.005692  -0.000054  -0.000001  -0.000169
    31  O    0.009072  -0.005208  -0.031176  -0.000030   0.000091  -0.005943
    32  C    0.001206   0.000415  -0.004717  -0.000044  -0.000038   0.003427
    33  O   -0.000011   0.000072  -0.008494  -0.000004   0.000001   0.012594
    34  C   -0.000020  -0.000001  -0.000473  -0.000002  -0.000000   0.000188
    35  H   -0.000011   0.000002   0.000023   0.000000   0.000000   0.000006
    36  H    0.000146  -0.000000   0.000038   0.000001  -0.000000  -0.000047
    37  H    0.000002   0.000000  -0.000004  -0.000000  -0.000000   0.000001
    38  C    0.000087  -0.001308   0.000444   0.000204   0.000000   0.000049
    39  H    0.000002  -0.000009   0.000044  -0.000043   0.000000  -0.000002
    40  H   -0.000002   0.000111  -0.001129  -0.000020   0.000001  -0.000028
    41  H   -0.000016   0.000452   0.002709   0.001436  -0.000049  -0.000069
              25         26         27         28         29         30
     1  H   -0.000002  -0.000061  -0.000939  -0.000466  -0.000012   0.004031
     2  C    0.000000   0.000338  -0.000519   0.000171   0.000011  -0.000133
     3  C   -0.000000   0.000089   0.000008  -0.000849  -0.000001  -0.000030
     4  H    0.000002  -0.000643   0.000055   0.002723   0.000000  -0.000060
     5  H   -0.000000  -0.000009   0.000014   0.000010  -0.000000  -0.000019
     6  H   -0.000000   0.000001  -0.000006   0.000004   0.000000   0.000004
     7  H    0.000000   0.000005  -0.000005  -0.000022   0.000000   0.000006
     8  C   -0.000001   0.000072  -0.001190   0.000325   0.000042  -0.000965
     9  C    0.000000  -0.000040   0.000079   0.000239  -0.000001  -0.000037
    10  H   -0.000001   0.000794  -0.001522  -0.001732  -0.000054   0.007387
    11  H   -0.000000   0.000002  -0.000003  -0.000009   0.000000   0.000004
    12  H   -0.000000   0.000000  -0.000001  -0.000002   0.000000   0.000001
    13  O    0.000013  -0.009416   0.001381   0.027745  -0.000002  -0.000114
    14  H    0.000053   0.001283  -0.000244  -0.001959   0.000009  -0.000039
    15  C   -0.000000  -0.000002   0.000020  -0.000009  -0.000000   0.000012
    16  H   -0.000000   0.000003  -0.000070  -0.000008   0.000001  -0.000004
    17  H   -0.000000  -0.000000  -0.000000   0.000000   0.000000  -0.000000
    18  H   -0.000000   0.000007  -0.000003  -0.000038   0.000000   0.000002
    19  H    0.005484  -0.007076  -0.001071   0.000301   0.000966  -0.000043
    20  C   -0.036164  -0.035452  -0.007488   0.004577   0.005728   0.000003
    21  C    0.346912   0.361937  -0.048419  -0.043363  -0.011438   0.005692
    22  H   -0.005533  -0.004980   0.003049  -0.000037   0.002544  -0.000054
    23  H   -0.001907   0.004064   0.000183  -0.000113  -0.000130  -0.000001
    24  H   -0.033587  -0.029125   0.005564  -0.004198  -0.000048  -0.000169
    25  H    0.633372  -0.030337  -0.004834   0.000645   0.000200  -0.000038
    26  C   -0.030337   4.863329   0.377108   0.331703  -0.029439  -0.031822
    27  C   -0.004834   0.377108   5.026597  -0.045266   0.353638   0.356968
    28  H    0.000645   0.331703  -0.045266   0.588702   0.005564  -0.005796
    29  H    0.000200  -0.029439   0.353638   0.005564   0.617171  -0.038152
    30  H   -0.000038  -0.031822   0.356968  -0.005796  -0.038152   0.604802
    31  O    0.002910   0.156532  -0.036406  -0.030920   0.000664   0.001118
    32  C    0.000167  -0.005326   0.004519  -0.004472  -0.000103   0.000078
    33  O    0.000106   0.001024   0.000743   0.012522  -0.000008   0.000003
    34  C    0.000006   0.006067  -0.000253   0.000674  -0.000011  -0.000005
    35  H   -0.000000  -0.000161   0.000002  -0.000006   0.000000   0.000001
    36  H   -0.000000  -0.000164  -0.000037   0.000003   0.000012   0.000001
    37  H    0.000000  -0.000211   0.000010  -0.000005   0.000003  -0.000011
    38  C    0.002318  -0.035495   0.355347  -0.002115  -0.035214  -0.035410
    39  H   -0.000005   0.003573  -0.023291  -0.000039  -0.001947  -0.004131
    40  H    0.000533  -0.004305  -0.036804   0.004927   0.005483  -0.004450
    41  H    0.002722  -0.005834  -0.030121  -0.000250  -0.005154   0.005142
              31         32         33         34         35         36
     1  H    0.005883   0.000427  -0.000721  -0.000392   0.000041  -0.000021
     2  C   -0.001208   0.001994  -0.003529  -0.000996   0.000002   0.000009
     3  C   -0.000000   0.000008   0.000055   0.000034  -0.000000  -0.000000
     4  H   -0.001928   0.003082   0.009992   0.000252  -0.000004   0.000024
     5  H    0.000061  -0.000039   0.000035  -0.000104   0.000002   0.000001
     6  H   -0.000000  -0.000000  -0.000000  -0.000000  -0.000000   0.000000
     7  H   -0.000001   0.000001  -0.000000  -0.000001   0.000000   0.000000
     8  C    0.000002  -0.000003   0.000002  -0.000001   0.000000   0.000000
     9  C   -0.000000  -0.000000  -0.000000   0.000000  -0.000000  -0.000000
    10  H   -0.000081  -0.000011   0.000000  -0.000000  -0.000000   0.000000
    11  H   -0.000000   0.000000   0.000000  -0.000000   0.000000   0.000000
    12  H   -0.000000  -0.000000  -0.000000  -0.000000   0.000000   0.000000
    13  O    0.000052  -0.000047  -0.000033  -0.000000   0.000000  -0.000000
    14  H   -0.000006   0.000002  -0.000000  -0.000000   0.000000   0.000000
    15  C    0.000000   0.000000   0.000000  -0.000000   0.000000   0.000000
    16  H   -0.000000  -0.000000  -0.000000  -0.000000   0.000000   0.000000
    17  H    0.000000   0.000000   0.000000   0.000000  -0.000000  -0.000000
    18  H   -0.000000   0.000000   0.000000   0.000000  -0.000000  -0.000000
    19  H    0.009072   0.001206  -0.000011  -0.000020  -0.000011   0.000146
    20  C   -0.005208   0.000415   0.000072  -0.000001   0.000002  -0.000000
    21  C   -0.031176  -0.004717  -0.008494  -0.000473   0.000023   0.000038
    22  H   -0.000030  -0.000044  -0.000004  -0.000002   0.000000   0.000001
    23  H    0.000091  -0.000038   0.000001  -0.000000   0.000000  -0.000000
    24  H   -0.005943   0.003427   0.012594   0.000188   0.000006  -0.000047
    25  H    0.002910   0.000167   0.000106   0.000006  -0.000000  -0.000000
    26  C    0.156532  -0.005326   0.001024   0.006067  -0.000161  -0.000164
    27  C   -0.036406   0.004519   0.000743  -0.000253   0.000002  -0.000037
    28  H   -0.030920  -0.004472   0.012522   0.000674  -0.000006   0.000003
    29  H    0.000664  -0.000103  -0.000008  -0.000011   0.000000   0.000012
    30  H    0.001118   0.000078   0.000003  -0.000005   0.000001   0.000001
    31  O    8.302505   0.223808  -0.069619  -0.093530   0.003273   0.005520
    32  C    0.223808   4.389294   0.506892   0.353222  -0.020116  -0.018257
    33  O   -0.069619   0.506892   8.050875  -0.068880   0.003225   0.002291
    34  C   -0.093530   0.353222  -0.068880   5.249143   0.350056   0.340703
    35  H    0.003273  -0.020116   0.003225   0.350056   0.549462  -0.025356
    36  H    0.005520  -0.018257   0.002291   0.340703  -0.025356   0.562475
    37  H    0.000261  -0.020601  -0.000235   0.354115  -0.023376  -0.024732
    38  C    0.002564  -0.000050   0.000010   0.000005  -0.000000  -0.000000
    39  H   -0.000046   0.000001   0.000000  -0.000000   0.000000   0.000000
    40  H    0.000025   0.000000  -0.000002   0.000000   0.000000   0.000000
    41  H    0.000002  -0.000000  -0.000000  -0.000000  -0.000000   0.000000
              37         38         39         40         41
     1  H    0.001248   0.000019  -0.000003  -0.000006   0.000001
     2  C    0.002111  -0.000009   0.000001   0.000028  -0.000000
     3  C   -0.000032   0.000013   0.000001   0.000018  -0.000001
     4  H   -0.000574  -0.000002   0.000000  -0.000014   0.000000
     5  H    0.000776  -0.000000   0.000000   0.000000   0.000000
     6  H    0.000001   0.000002  -0.000000  -0.000002  -0.000000
     7  H    0.000001   0.000000   0.000000  -0.000003   0.000000
     8  C    0.000000  -0.001426   0.000024   0.003040   0.000015
     9  C   -0.000000   0.000031  -0.000010  -0.000730   0.000001
    10  H    0.000000   0.003780   0.000056  -0.004372   0.000028
    11  H    0.000000   0.000002  -0.000001  -0.000018   0.000000
    12  H    0.000000   0.000002   0.000000  -0.000016   0.000000
    13  O    0.000000  -0.003133   0.000028   0.005621   0.000018
    14  H    0.000000   0.000225  -0.000085   0.008911  -0.000050
    15  C    0.000000  -0.000808  -0.000090   0.001359   0.000022
    16  H    0.000000   0.000653   0.000941   0.001120  -0.000016
    17  H   -0.000000   0.000013  -0.000000   0.000005  -0.000000
    18  H    0.000000  -0.000005  -0.000009  -0.000028   0.000001
    19  H    0.000002   0.000087   0.000002  -0.000002  -0.000016
    20  C    0.000000  -0.001308  -0.000009   0.000111   0.000452
    21  C   -0.000004   0.000444   0.000044  -0.001129   0.002709
    22  H   -0.000000   0.000204  -0.000043  -0.000020   0.001436
    23  H   -0.000000   0.000000   0.000000   0.000001  -0.000049
    24  H    0.000001   0.000049  -0.000002  -0.000028  -0.000069
    25  H    0.000000   0.002318  -0.000005   0.000533   0.002722
    26  C   -0.000211  -0.035495   0.003573  -0.004305  -0.005834
    27  C    0.000010   0.355347  -0.023291  -0.036804  -0.030121
    28  H   -0.000005  -0.002115  -0.000039   0.004927  -0.000250
    29  H    0.000003  -0.035214  -0.001947   0.005483  -0.005154
[...]
 7,0.00006501,0.00004196,-0.00002183,-0.00002160,-0.00002612,0.00003068
 ,0.00001638,0.00007586,-0.00000147,0.00001307,-0.00002228,-0.00002066,
 -0.00000202,-0.00001008,-0.00000464,-0.00001497,0.00000060,0.00000184,
 0.00000033,-0.00000241,0.00000256,-0.00000146,-0.00001511,-0.00000733,
 -0.00000685,0.00000518,-0.00000541,-0.00000002,0.00001245,-0.00000271,
 0.00000048,-0.00000291,-0.00000054,-0.00000281,-0.00000089,-0.00000519
 ,-0.00000204,-0.00000079,-0.00000018,0.00000017,0.00002019,-0.00000046
 ,0.00000263,-0.00000948,0.00002811,0.00000904,0.00002220,-0.00000554,-
 0.00006524,0.00000036,-0.00001046,-0.00000081,-0.00000625,-0.00001201,
 -0.00000421,0.00000268,0.00000262,0.00000483,-0.00000649,-0.00001148,0
 .00001043,0.00019090,0.00027046,-0.00003423,0.00000589,-0.00007016,0.0
 0004381,0.00003773,-0.00008401,-0.00003908,-0.00001779,-0.00000095,0.0
 0000473,0.00002466,-0.00000868,0.00000694,0.00020660,-0.00105505,-0.00
 028128,0.00088812,0.00183134,-0.00315978,-0.00137138,0.00105431,0.0009
 0630,0.08148843,0.02982529,-0.07585255,0.02525027,0.01093113,-0.008885
 74,-0.01784232,-0.00800105,0.00806388,-0.08906004,-0.03451491,0.079496
 09,-0.00006619,0.00017114,-0.00005383,0.00022019,-0.00014385,0.0001848
 5,0.00006969,-0.00009759,-0.00018803,0.00001111,-0.00005163,-0.0000450
 7,-0.00008910,0.00006190,-0.00006196,0.00004928,0.00011043,0.00000980,
 -0.00005259,0.00003918,0.00003207,-0.00056146,-0.00060797,0.00102498,-
 0.00010940,0.00001985,-0.00022257,-0.00040145,-0.00035848,-0.00035517,
 0.00011261,0.00002576,-0.00005584,-0.00001515,0.00000684,0.00004710,0.
 00155712,0.00091835,0.00039688,-0.00182611,0.00014657,-0.00121823,0.00
 021950,-0.00018773,0.00032953,-0.00018548,-0.00002494,0.00007211,0.000
 15670,0.00004005,-0.00012219,-0.00001011,0.00022595,-0.00023542,0.0001
 0377,-0.00019901,-0.00009563,-0.00026114,0.00013335,0.00015762,-0.0001
 5645,0.00022290,-0.00022794,-0.00015354,0.00025390,-0.00009847,0.00001
 407,-0.00005741,0.00001816,0.00017870,-0.00020716,-0.00015038,-0.00006
 403,-0.00012830,0.00100921,-0.00243371,0.00584458,0.00181597,-0.079653
 53,0.01715986,0.00409505,0.00038817,-0.00083909,-0.00070977,-0.0036875
 9,0.02548094,0.00669384,0.00599141,-0.02426843,-0.00643745,0.00077755,
 0.00023820,0.00062659,0.00038874,0.00034845,-0.00000818,-0.00024521,-0
 .00008282,-0.00005455,-0.00006398,-0.00000418,0.00008668,0.00001269,0.
 00002402,-0.00000645,-0.00000356,0.00000253,-0.00000520,0.00001244,-0.
 00000565,0.00000980,0.54096209,0.00002290,-0.00000276,0.00010433,-0.00
 009541,0.00001486,-0.00004880,-0.00008724,0.00006661,0.00000631,-0.000
 05472,0.00003662,-0.00002447,0.00003667,-0.00003506,-0.00000238,-0.000
 00015,-0.00006587,-0.00000483,0.00003014,-0.00005315,-0.00000559,0.000
 73187,0.00033338,-0.00099108,0.00023245,0.00000456,0.00012546,-0.00018
 283,0.00003211,0.00013942,-0.00005359,0.00001856,0.00003842,0.00000897
 ,-0.00001035,-0.00001953,-0.00143496,-0.00083210,-0.00042739,0.0009188
 4,-0.00049803,0.00092833,-0.00008317,0.00019436,0.00015901,-0.00002059
 ,-0.00013838,-0.00012925,-0.00012327,0.00000221,-0.00000889,-0.0000247
 4,-0.00009759,-0.00000623,0.00011672,-0.00005626,-0.00012508,-0.000180
 37,-0.00056345,0.00030609,0.00018879,0.00128619,0.00010806,-0.00012871
 ,0.00030991,-0.00008259,-0.00013643,0.00001664,0.00002994,-0.00053756,
 -0.00027090,0.00032564,0.00016596,-0.00048080,0.00027590,0.00340220,-0
 .00879581,-0.00967277,0.01615342,-0.16733105,-0.01621582,-0.00061774,0
 .00076052,0.00096388,0.00155396,-0.01160535,-0.00237599,0.00431049,-0.
 01947402,-0.00479626,-0.00025255,0.00234124,0.00139129,-0.00015303,0.0
 0027286,-0.00055894,0.00008620,0.00000809,0.00047561,0.00008641,0.0001
 5986,0.00020086,0.00000283,0.00008750,0.00002132,0.00000653,-0.0000247
 4,-0.00000224,0.00000549,0.00004635,-0.00000154,0.02251126,0.44986981,
 0.00004271,-0.00003453,-0.00006585,0.00000888,0.00008932,-0.00004121,0
 .00008798,-0.00017521,0.00012746,0.00007678,-0.00005374,0.00002969,0.0
 0000357,0.00005201,0.00004104,0.00000103,0.00005556,-0.00000108,0.0000
 4047,0.00010334,0.00004195,-0.00059879,-0.00000017,-0.00012339,-0.0001
 3034,-0.00007442,0.00007227,0.00005972,-0.00021169,0.00032310,0.000083
 45,0.00006187,-0.00003049,0.00008850,-0.00001405,0.00000738,0.00042475
 ,0.00062140,0.00021299,-0.00074084,-0.00020915,-0.00117945,0.00037055,
 -0.00027299,-0.00024867,0.00011176,-0.00012326,0.00051686,0.00030136,0
 .00005862,0.00003608,-0.00014640,0.00020386,-0.00032900,-0.00003645,-0
 .00002909,0.00007777,-0.00040570,-0.00009180,-0.00043037,0.00041673,0.
 00081855,-0.00090753,0.00021759,0.00012935,0.00025788,0.00002551,0.000
 01995,0.00014302,-0.00013843,-0.00035951,0.00027645,0.00093753,-0.0010
 4992,-0.00100567,0.00518518,-0.02807134,-0.00298102,0.00348022,-0.0187
 5581,-0.08106568,-0.00003895,-0.00035811,0.00052726,-0.00197333,0.0163
 2679,0.00418754,-0.00227638,0.00756848,0.00162501,0.00057843,-0.004569
 88,-0.00816625,0.00157810,-0.00122056,0.00261380,-0.00041959,0.0005816
 0,-0.00078661,-0.00034848,-0.00025238,-0.00052462,-0.00002537,-0.00021
 681,-0.00000235,0.00001994,0.00004350,-0.00000417,-0.00000966,-0.00015
 918,-0.00003180,0.00072924,-0.01874586,0.54655991,0.00000160,-0.000009
 37,0.00001187,-0.00000329,0.00001450,-0.00001696,-0.00001346,-0.000027
 14,0.00009860,-0.00001271,0.00001689,0.00000716,0.00000200,0.00000059,
 0.00000958,-0.00001222,-0.00003577,-0.00000220,0.00002259,0.00001867,0
 .00001032,0.00015895,0.00027794,-0.00059336,0.00002906,-0.00006969,0.0
 0010056,0.00012446,-0.00003011,0.00011439,-0.00003382,0.00001036,0.000
 01475,0.00004140,0.00003277,0.00001688,-0.00056462,-0.00019521,0.00002
 563,0.00051960,-0.00019599,0.00023522,-0.00009970,0.00004715,-0.000343
 68,0.00007067,-0.00000015,0.00019246,0.00006751,-0.00001739,0.00009583
 ,0.00000211,-0.00006168,0.00007082,-0.00002850,0.00003546,0.00000607,0
 .00011826,0.00003424,0.00000845,0.00012767,-0.00030608,0.00009724,0.00
 007614,-0.00005220,0.00005188,-0.00001676,-0.00000042,0.00001148,-0.00
 002841,0.00015485,-0.00001125,-0.00012351,0.00034889,-0.00013247,0.000
 05304,0.00068983,-0.00091216,-0.00233974,0.00012221,0.00551645,0.00008
 601,0.00004065,0.00036728,-0.00023751,-0.00009184,0.00022104,0.0004720
 4,-0.00008943,-0.00057921,0.00032914,0.00022492,0.00049818,-0.00009893
 ,-0.00002824,-0.00021616,0.00006702,0.00001783,0.00007688,0.00000530,0
 .00001627,0.00003980,-0.00000205,0.00001834,0.00000077,-0.00000427,-0.
 00000166,-0.00000140,0.00000048,0.00000575,0.00000142,-0.06138656,0.00
 609485,0.05969347,0.06177750,0.00001997,0.00000807,-0.00004954,0.00000
 917,0.00000432,0.00000849,0.00006102,-0.00004745,-0.00002162,0.0000359
 3,-0.00001747,0.00002858,-0.00001560,0.00000917,0.00000245,-0.00001883
 ,0.00001762,0.00001179,-0.00000484,0.00002296,0.00001840,-0.00014761,0
 .00002861,-0.00011198,-0.00001106,0.00005183,-0.00001265,0.00007856,-0
 .00004717,0.00004491,-0.00000887,-0.00001087,-0.00000189,0.00000805,-0
 .00003039,0.00000540,0.00002064,0.00003261,0.00011534,-0.00021051,0.00
 003013,-0.00009210,-0.00001171,-0.00005945,0.00006877,-0.00000657,0.00
 007049,-0.00004376,0.00000323,0.00000005,-0.00001760,0.00000886,0.0000
 1381,0.00000496,-0.00008832,0.00002554,-0.00000157,0.00001915,0.000109
 33,-0.00009865,-0.00019232,-0.00043100,0.00029535,0.00001897,-0.000024
 11,0.00006759,0.00006372,0.00000435,0.00002649,0.00004188,0.00021903,-
 0.00006952,0.00008077,0.00040673,-0.00019875,0.00070691,-0.00466642,0.
 00292596,0.00747199,-0.00404026,-0.03293893,-0.00010156,0.00001211,0.0
 0008435,0.00027069,0.00090458,0.00051084,-0.00063547,0.00103680,0.0000
 3391,0.00020067,-0.00171315,-0.00290198,0.00058229,-0.00024100,0.00120
 165,-0.00015561,0.00019631,-0.00048908,-0.00013684,-0.00011000,-0.0002
 0352,-0.00000877,-0.00008889,-0.00000694,0.00000579,0.00002189,0.00000
 141,-0.00000377,-0.00005983,-0.00001140,0.00605087,-0.04662213,-0.0242
 8316,-0.00735522,0.05280375,0.00000527,0.00001731,-0.00004183,0.000031
 07,0.00001394,0.00001149,-0.00000078,-0.00005715,0.00006959,0.00001681
 ,0.00000736,0.00003498,-0.00002722,0.00000228,0.00000391,-0.00003012,-
 0.00003175,0.00001679,0.00000336,0.00002762,0.00001104,0.00023110,0.00
 029508,-0.00072919,0.00003328,-0.00010197,0.00008809,0.00013277,-0.000
 04322,0.00011538,-0.00004580,0.00001929,0.00002195,0.00004418,0.000058
 67,0.00003708,-0.00065742,-0.00012224,0.00027412,0.00049507,-0.0002242
 6,0.00012251,-0.00023128,0.00009728,-0.00042595,0.00002846,-0.00000242
 ,0.00019924,0.00006032,-0.00001379,0.00011026,0.00003229,-0.00007289,0
 .00008415,0.00003046,-0.00002782,0.00002350,-0.00005577,-0.00005147,-0
 .00006788,-0.00016235,0.00030514,0.00010354,-0.00002466,0.00000933,0.0
 0000435,0.00004726,0.00000737,-0.00000677,0.00004068,-0.00006788,-0.00
 001712,-0.00000458,-0.00025441,0.00003906,0.00004020,-0.00066528,0.001
 87164,0.00068019,-0.00029894,-0.00463342,0.00006100,0.00010781,0.00031
 904,0.00034298,-0.00034961,0.00038664,-0.00042192,-0.00039640,0.000406
 08,0.00007549,-0.00062197,-0.00090886,0.00029360,0.00020150,0.00072187
 ,-0.00009641,0.00000390,-0.00028234,-0.00005573,-0.00005029,-0.0000666
 7,-0.00000243,-0.00003831,-0.00000659,0.00000487,0.00001070,-0.0000004
 3,-0.00000262,-0.00003269,-0.00000530,0.05953612,-0.02444383,-0.282175
 15,-0.06579632,0.02790986,0.30531301,0.00001236,-0.00001366,0.00002330
 ,-0.00005236,0.00002453,-0.00004121,-0.00000884,0.00000287,0.00001056,
 -0.00000770,0.00002015,0.00001467,0.00001127,-0.00002127,0.00000799,-0
 .00000291,-0.00003414,0.00000466,0.00001503,-0.00003363,-0.00000761,-0
 .00033010,-0.00014793,-0.00077297,-0.00008334,-0.00003471,0.00011564,-
 0.00041059,-0.00025390,-0.00001463,-0.00000565,-0.00000809,0.00003835,
 0.00002216,0.00000468,-0.00000941,-0.00149372,-0.00084709,-0.00023065,
 0.00055473,-0.00000161,-0.00038950,-0.00037396,0.00017539,0.00005092,-
 0.00034802,0.00013316,-0.00011831,-0.00011060,-0.00001228,0.00002403,0
 .00003051,-0.00007116,0.00020608,0.00005261,-0.00000239,0.00009971,0.0
 0001133,-0.00013871,-0.00027300,-0.00007997,0.00033663,0.00001761,0.00
 023915,-0.00002704,0.00013845,0.00000441,0.00001241,0.00008371,-0.0000
 0265,-0.00004590,0.00006780,-0.00014120,-0.00023449,-0.00008911,-0.000
 09757,0.00010471,-0.00113272,-0.00504432,0.00281094,-0.00232666,0.0001
 2286,0.00028489,0.00061377,0.00122846,0.00125416,0.00050589,0.00059805
 ,0.00019913,0.00033855,0.00024944,-0.00012355,0.00042035,-0.00010692,0
 .00000815,-0.00021986,0.00009227,-0.00005765,0.00015315,-0.00000358,0.
 00000760,0.00002039,0.00000002,0.00000692,0.00000508,0.00000662,-0.000
 01109,-0.00000256,-0.00000339,0.00000375,-0.00000500,-0.19075236,0.062
 33066,-0.10431603,0.00670478,-0.00355496,0.00441628,0.20862815,-0.0000
 1684,0.00000731,-0.00003974,0.00010029,-0.00000290,0.00006769,0.000129
 35,-0.00016634,0.00002979,0.00002674,-0.00005633,-0.00003355,-0.000009
 97,0.00006407,-0.00000006,0.00003209,0.00007362,-0.00001633,0.00000605
 ,0.00007233,0.00002985,-0.00164617,-0.00055680,0.00046694,-0.00016574,
 0.00008924,0.00011284,-0.00026843,-0.00037534,0.00012388,0.00008031,-0
 .00006312,-0.00006227,0.00004626,-0.00004071,-0.00000063,0.00177004,0.
 00048901,0.00057426,-0.00091817,0.00103207,-0.00076980,0.00018375,-0.0
 0003685,-0.00022473,0.00010880,0.00004085,0.00007525,0.00007283,-0.000
 06854,0.00000922,0.00001197,0.00006819,0.00008987,-0.00005212,0.000070
 35,0.00007959,0.00001017,0.00007645,0.00004454,-0.00012310,-0.00011604
 ,-0.00019557,-0.00004949,-0.00014172,-0.00000956,-0.00000852,0.0000344
 2,-0.00008543,0.00007122,0.00005795,-0.00005626,0.00000657,0.00003568,
 -0.00002998,0.00083396,0.00065024,0.00160795,0.02564691,-0.01119035,0.
 01759594,0.00000893,-0.00034158,-0.00107808,0.00061260,-0.00610399,-0.
 00199529,-0.00045621,0.00069560,0.00049651,-0.00055537,0.00015549,-0.0
 0029430,0.00008623,0.00014745,0.00033203,-0.00016259,0.00004690,-0.000
 24729,0.00004220,-0.00001277,-0.00001658,-0.00000028,-0.00000630,-0.00
 000837,-0.00001595,0.00001218,0.00000534,0.00000712,-0.00000950,0.0000
 1022,0.06166088,-0.07227253,0.04585307,-0.00287485,0.00037223,-0.00117
 276,-0.07096079,0.08067853,0.00001042,-0.00001104,0.00003149,-0.000069
 72,-0.00001317,-0.00000220,-0.00003003,0.00009956,-0.00020409,-0.00000
 634,-0.00001481,-0.00002640,0.00003284,-0.00002712,-0.00001868,0.00002
 107,0.00002119,-0.00000107,-0.00003041,-0.00009892,-0.00002186,-0.0001
 9999,-0.00026262,0.00071523,0.00003222,0.00020094,-0.00010513,-0.00013
 347,0.00027875,-0.00035994,-0.00000113,-0.00007432,0.00000455,-0.00009
 412,-0.00007496,-0.00004615,-0.00005163,-0.00054283,-0.00070708,-0.000
 84454,0.00044294,-0.00000764,0.00002777,0.00011950,0.00066063,0.000003
 63,0.00008337,-0.00067444,-0.00030904,-0.00006978,-0.00016968,0.000092
 21,-0.00005789,0.00020742,0.00000806,0.00001881,-0.00003878,0.00000881
 ,-0.00011288,0.00002613,-0.00002275,0.00005882,0.00018001,-0.00004916,
 0.00002392,-0.00001462,-0.00002648,0.00000802,0.00000271,-0.00006494,0
 .00004109,0.00001447,-0.00001671,0.00006789,0.00000271,0.00131777,-0.0
 0078604,0.00043135,0.00584873,-0.00178650,0.00385804,-0.00016042,-0.00
 012007,0.00008530,0.00077219,-0.00163419,0.00050612,-0.00014664,0.0005
 8320,-0.00005063,-0.00002144,0.00028510,0.00027611,-0.00014502,-0.0000
 8264,-0.00025990,0.00005581,0.00005987,0.00013711,0.00002049,0.0000304
 6,0.00003215,0.00000079,0.00001796,0.00000451,0.00000217,-0.00000453,-
 0.00000177,-0.00000155,0.00002209,-0.00000335,-0.10416224,0.04619231,-
 0.12220790,-0.02458089,0.01016899,-0.01629556,0.11749848,-0.05003363,0
 .13074821,0.00000559,-0.00000225,0.00001507,-0.00004515,0.00001134,-0.
 00000766,-0.00006951,0.00010068,-0.00006789,-0.00000624,0.00001561,0.0
 0000590,0.00001208,-0.00003419,-0.00000633,-0.00000124,-0.00002338,0.0
 0000455,-0.00002015,-0.00006025,-0.00003601,0.00044818,-0.00003932,0.0
 0025107,0.00002759,0.00002062,-0.00008057,-0.00009080,0.00016323,-0.00
 021266,-0.00001105,0.00000025,0.00002524,-0.00005821,0.00000037,-0.000
 02061,-0.00028727,-0.00006205,-0.00030149,0.00019545,-0.00027881,0.000
 50518,0.00000922,0.00005937,0.00032729,-0.00002019,-0.00002753,-0.0002
 4458,-0.00013164,0.00000699,-0.00006085,0.00003865,-0.00004808,0.00000
 148,-0.00003148,0.00000321,-0.00009916,0.00019260,0.00018948,0.0001954
 4,-0.00003882,-0.00034331,0.00086052,-0.00010096,-0.00002259,-0.000139
 79,0.00002808,-0.00002574,-0.00002678,-0.00003407,0.00023898,-0.000084
 14,-0.00014299,0.00075837,0.00037834,-0.00024066,-0.00047533,0.0004307
 4,0.00680477,0.00393630,-0.00218402,-0.00003519,0.00003329,0.00007321,
 0.00083560,-0.00044418,-0.00023494,0.00098706,0.00206617,0.00044995,0.
 00008416,-0.00009010,-0.00033737,-0.00001571,-0.00007560,0.00014123,0.
 00007653,0.00007034,-0.00005845,-0.00001619,-0.00000624,-0.00001639,-0
 .00000122,-0.00000692,-0.00000219,0.00000037,0.00000264,0.00000218,-0.
 00000030,0.00000817,-0.00000210,-0.20904713,-0.11483055,0.03704130,-0.
 00585123,-0.00309067,0.00093230,-0.01912445,-0.01327066,0.00541520,0.2
 2567596,-0.00004721,0.00008175,-0.00003762,0.00011749,-0.00007309,0.00
 010431,0.00003618,-0.00002254,-0.00000245,-0.00001113,0.00000190,-0.00
 001216,-0.00005034,0.00000329,-0.00003796,0.00000789,0.00000839,0.0000
 0570,-0.00002709,0.00002449,-0.00000504,0.00001917,-0.00003305,0.00021
 139,-0.00003819,-0.00002575,-0.00004781,0.00009573,-0.00008625,-0.0000
 3712,0.00001001,0.00000425,-0.00000450,-0.00000882,0.00002606,0.000008
 02,0.00008033,0.00016199,-0.00005781,-0.00006495,0.00000916,-0.0001342
 9,-0.00000038,-0.00004743,-0.00013191,-0.00002222,0.00001090,0.0001135
 3,0.00004841,0.00001253,0.00002999,-0.00000806,0.00001764,-0.00001256,
 -0.00015010,0.00013373,0.00017505,0.00013313,0.00007332,-0.00039850,-0
 .00005220,-0.00079516,-0.00036231,0.00040834,-0.00021920,0.00032527,-0
 .00000710,0.00006611,0.00012827,0.00008871,0.00034944,0.00000720,-0.00
 002019,0.00065268,-0.00046900,-0.00111886,0.00000866,0.00133254,-0.025
 62541,-0.01816350,0.00619302,0.00010187,0.00003948,-0.00001888,0.00017
 679,0.00100311,0.00060450,0.00202075,-0.00559542,-0.00200925,0.0005479
 3,-0.00002559,-0.00061173,0.00015422,0.00009114,0.00041736,-0.00001605
 ,0.00011395,-0.00027979,-0.00005134,-0.00002723,-0.00001361,-0.0000001
 7,-0.00000802,-0.00001163,-0.00001243,0.00000605,0.00000955,0.00001181
 ,0.00000695,0.00000763,-0.11443354,-0.12663191,0.02674535,0.00321945,0
 .00180725,0.00004690,0.00891530,0.00659155,-0.00301687,0.12557232,0.14
 044837,-0.00000346,0.00000957,0.00000884,-0.00001075,-0.00001090,0.000
 00765,-0.00002335,0.00002764,-0.00002298,-0.00001081,0.00001044,0.0000
 0022,-0.00000112,-0.00000826,-0.00000744,-0.00000497,-0.00001684,0.000
 00119,-0.00000327,-0.00002217,-0.00000636,0.00021039,0.00006323,-0.000
 11982,0.00003359,-0.00000617,-0.00000840,0.00005045,0.00007599,-0.0000
 6843,-0.00002450,-0.00000432,0.00000993,-0.00000910,0.00001354,0.00000
 636,-0.00027669,-0.00013162,-0.00013636,0.00016509,-0.00016097,0.00035
 152,-0.00010241,0.00003556,-0.00002930,-0.00001012,0.00003557,-0.00004
 172,-0.00002426,-0.00000638,0.00001471,0.00003175,-0.00004314,0.000057
 14,-0.00010740,0.00005333,-0.00004473,0.00016821,0.00012279,0.00016640
 ,0.00044165,-0.00096249,-0.00048072,-0.00003614,-0.00002131,-0.0000664
 5,-0.00002616,-0.00001520,-0.00002764,-0.00016732,0.00018671,0.0000512
 2,0.00053342,-0.00012303,-0.00152809,-0.00103374,-0.00057855,0.0001834
 3,-0.00591629,-0.00293523,0.00066882,0.00000349,0.00000439,0.00001994,
 0.00025400,0.00057446,0.00016635,0.00012441,-0.00134705,0.00041224,0.0
 0031284,0.00022712,0.00008215,-0.00004018,-0.00005859,-0.00015468,0.00
 004805,0.00004366,0.00001966,-0.00001416,0.00001641,0.00002799,-0.0000
 0157,0.00001333,0.00000151,-0.00000264,0.00000185,-0.00000044,0.000000
 93,0.00000764,0.00000060,0.03763893,0.02689719,-0.05536920,0.02559161,
 0.01801917,-0.00472622,-0.01492619,-0.01123457,0.00329264,-0.04283221,
 -0.02875277,0.05728846\\-0.00057087,0.00007549,-0.00067231,0.00027022,
 -0.00042275,-0.00009314,-0.00030953,-0.00035053,0.00013477,-0.00029785
 ,-0.00020092,0.00062376,0.00046400,0.00081617,0.00020742,0.00031991,0.
 00033903,-0.00059375,0.00042750,-0.00002021,0.00056345,0.00011710,0.00
 006424,-0.00002898,-0.00039855,-0.00005696,0.00017946,-0.00034412,-0.0
 0002738,-0.00013900,0.00036075,0.00030211,-0.00064791,0.00043436,-0.00
 017297,0.00049848,0.00122109,0.00298830,0.00117578,-0.00121040,-0.0030
 1872,-0.00117126,0.00002762,0.00033311,0.00025135,-0.00056290,0.000148
 64,-0.00061050,0.00076172,-0.00041417,-0.00033918,-0.00030762,-0.00039
 455,0.00060341,-0.00018401,0.00085058,-0.00001970,0.00054563,-0.000061
 32,0.00023225,0.00001985,0.00033778,-0.00034754,0.00003609,-0.00033749
 ,-0.00080629,-0.00065234,-0.00040814,0.00054573,-0.00019594,0.00017419
 ,0.00063451,0.00006559,-0.00075407,-0.00007779,-0.00019846,0.00007361,
 -0.00016529,-0.00010909,-0.00012990,0.00037042,0.00011000,0.00015769,0
 .00009733,-0.00054984,0.00012772,-0.00042381,0.00062343,0.00027863,-0.
 00024882,0.00015386,-0.00022154,0.00008676,-0.00009881,-0.00057614,0.0
 0022501,-0.00003777,0.00017640,0.00004237,0.00022686,-0.00060559,-0.00
 012690,-0.00019097,0.00044402,0.00079187,-0.00066258,0.00031203,-0.000
 45638,0.00069730,0.00044028,-0.00028632,-0.00010397,0.00045112,0.00013
 144,0.00021067,0.00000875,-0.00085967,0.00064388,-0.00025727,0.0005450
 4,-0.00075182,-0.00046924,0.00017396\\\@


 BUT 'GLORY' DOESN'T MEAN 'A NICE KNOCK DOWN ARGUMENT', ALICE OBJECTED.
 WHEN I USE A WORD, HUMPTY DUMPTY SAID, IN A RATHER SCORNFUL TONE,
 IT MEANS JUST WHAT I CHOOSE IT TO MEAN....
 NEITHER MORE NOR LESS....
 THE QUESTION IS, SAID ALICE,
 WHETHER YOU CAN MAKE WORDS MEAN SO MANY DIFFERENT THINGS...
 THE QUESTION IS, SAID HUMPTY DUMPTY,
 WHICH IS TO BE MASTER....
 THAT IS ALL.....

 ALICE THROUGH THE LOOKING GLASS
 Job cpu time:       0 days  1 hours 13 minutes 59.5 seconds.
 Elapsed time:       0 days  0 hours  9 minutes 17.7 seconds.
 File lengths (MBytes):  RWF=    370 Int=      0 D2E=      0 Chk=      7 Scr=      1
 Normal termination of Gaussian 16 at Sat Jan 21 11:42:39 2023.
