 Entering Gaussian System, Link 0=/dragofs/sw/campus/0.2/software/gaussian/16.gaussian/gaussian/g16_legacy/g16
 Input=C12H26O3_pair_004_088_allign_FREQ_g16.com
 Output=C12H26O3_pair_004_088_allign_FREQ_g16.log
 Initial command:
 /dragofs/sw/campus/0.2/software/gaussian/16.gaussian/gaussian/g16_legacy/l1.exe "/tmp/jramos/37688/Gau-4059949.inp" -scrdir="/tmp/jramos/37688/"
 Entering Link 1 = /dragofs/sw/campus/0.2/software/gaussian/16.gaussian/gaussian/g16_legacy/l1.exe PID=   4059959.
  
 Copyright (c) 1988,1990,1992,1993,1995,1998,2003,2009,2016,
            Gaussian, Inc.  All Rights Reserved.
  
 This is part of the Gaussian(R) 16 program.  It is based on
 the Gaussian(R) 09 system (copyright 2009, Gaussian, Inc.),
 the Gaussian(R) 03 system (copyright 2003, Gaussian, Inc.),
 the Gaussian(R) 98 system (copyright 1998, Gaussian, Inc.),
 the Gaussian(R) 94 system (copyright 1995, Gaussian, Inc.),
 the Gaussian 92(TM) system (copyright 1992, Gaussian, Inc.),
 the Gaussian 90(TM) system (copyright 1990, Gaussian, Inc.),
 the Gaussian 88(TM) system (copyright 1988, Gaussian, Inc.),
 the Gaussian 86(TM) system (copyright 1986, Carnegie Mellon
 University), and the Gaussian 82(TM) system (copyright 1983,
 Carnegie Mellon University). Gaussian is a federally registered
 trademark of Gaussian, Inc.
  
 This software contains proprietary and confidential information,
 including trade secrets, belonging to Gaussian, Inc.
  
 This software is provided under written license and may be
 used, copied, transmitted, or stored only in accord with that
 written license.
  
 The following legend is applicable only to US Government
 contracts under FAR:
  
                    RESTRICTED RIGHTS LEGEND
  
 Use, reproduction and disclosure by the US Government is
 subject to restrictions as set forth in subparagraphs (a)
 and (c) of the Commercial Computer Software - Restricted
 Rights clause in FAR 52.227-19.
  
 Gaussian, Inc.
 340 Quinnipiac St., Bldg. 40, Wallingford CT 06492
  
  
 ---------------------------------------------------------------
 Warning -- This program may not be used in any manner that
 competes with the business of Gaussian, Inc. or will provide
 assistance to any competitor of Gaussian, Inc.  The licensee
 of this program is prohibited from giving any competitor of
 Gaussian, Inc. access to this program.  By using this program,
 the user acknowledges that Gaussian, Inc. is engaged in the
 business of creating and licensing software in the field of
 computational chemistry and represents and warrants to the
 licensee that it is not a competitor of Gaussian, Inc. and that
 it will not use this program in any manner prohibited above.
 ---------------------------------------------------------------
  

 Cite this work as:
 Gaussian 16, Revision A.03,
 M. J. Frisch, G. W. Trucks, H. B. Schlegel, G. E. Scuseria, 
 M. A. Robb, J. R. Cheeseman, G. Scalmani, V. Barone, 
 G. A. Petersson, H. Nakatsuji, X. Li, M. Caricato, A. V. Marenich, 
 J. Bloino, B. G. Janesko, R. Gomperts, B. Mennucci, H. P. Hratchian, 
 J. V. Ortiz, A. F. Izmaylov, J. L. Sonnenberg, D. Williams-Young, 
 F. Ding, F. Lipparini, F. Egidi, J. Goings, B. Peng, A. Petrone, 
 T. Henderson, D. Ranasinghe, V. G. Zakrzewski, J. Gao, N. Rega, 
 G. Zheng, W. Liang, M. Hada, M. Ehara, K. Toyota, R. Fukuda, 
 J. Hasegawa, M. Ishida, T. Nakajima, Y. Honda, O. Kitao, H. Nakai, 
 T. Vreven, K. Throssell, J. A. Montgomery, Jr., J. E. Peralta, 
 F. Ogliaro, M. J. Bearpark, J. J. Heyd, E. N. Brothers, K. N. Kudin, 
 V. N. Staroverov, T. A. Keith, R. Kobayashi, J. Normand, 
 K. Raghavachari, A. P. Rendell, J. C. Burant, S. S. Iyengar, 
 J. Tomasi, M. Cossi, J. M. Millam, M. Klene, C. Adamo, R. Cammi, 
 J. W. Ochterski, R. L. Martin, K. Morokuma, O. Farkas, 
 J. B. Foresman, and D. J. Fox, Gaussian, Inc., Wallingford CT, 2016.
 
 ******************************************
 Gaussian 16:  EM64L-G16RevA.03 25-Dec-2016
                21-Jan-2023 
 ******************************************
 %chk=C12H26O3_pair_004_088_allign_FREQ_gaussian.chk
 %nproc=8
 Will use up to    8 processors via shared memory.
 %mem=1000Mb
 -------------------------------------------------------
 #p BLYP/6-31G* EmpiricalDispersion=GD3 freq scale=0.992
 -------------------------------------------------------
 1/10=4,30=1,38=1,114=992000/1,3;
 2/12=2,17=6,18=5,40=1/2;
 3/5=1,6=6,7=1,11=2,25=1,30=1,71=2,74=402,124=31,140=1/1,2,3;
 4//1;
 5/5=2,38=5,98=1/2;
 8/6=4,10=90,11=11/1;
 11/6=1,8=1,9=11,15=111,16=1/1,2,10;
 10/6=1/2;
 6/7=2,8=2,9=2,10=2,28=1/1;
 7/8=1,10=1,25=1/1,2,3,16;
 1/10=4,30=1/3;
 99//99;
 Leave Link    1 at Sat Jan 21 11:03:04 2023, MaxMem=   131072000 cpu:               0.3 elap:               0.0
 (Enter /dragofs/sw/campus/0.2/software/gaussian/16.gaussian/gaussian/g16_legacy/l101.exe)
 --------------------------------------------
 Conformer name C12H26O3_pair_004_088_allign.
 --------------------------------------------
 Symbolic Z-matrix:
 Charge =  0 Multiplicity = 1
 H                    -3.0954   -2.6666   -0.8146 
 C                    -3.184    -2.5027    0.2693 
 C                    -3.5371   -1.0305    0.5599 
 H                    -3.9532   -3.1871    0.6618 
 H                    -2.2208   -2.7785    0.7328 
 H                    -3.6717   -0.8782    1.6457 
 H                    -4.4987   -0.7745    0.0802 
 C                    -2.4709   -0.0384    0.0565 
 C                    -2.8055    1.4243    0.4365 
 H                    -1.4992   -0.3037    0.5277 
 H                    -2.8815    1.4889    1.5379 
 H                    -3.8046    1.6664    0.0319 
 O                    -2.3756   -0.2058   -1.377 
 H                    -1.5109    0.1763   -1.6472 
 C                    -1.775     2.4506   -0.0772 
 H                    -1.7327    2.4469   -1.1769 
 H                    -0.7608    2.218     0.2856 
 H                    -2.0322    3.471     0.2488 
 H                     3.5818   -0.1295   -1.9376 
 C                     3.9032    0.8123   -1.4667 
 C                     3.7928    0.7215    0.0693 
 H                     4.9415    1.0071   -1.777 
 H                     3.2654    1.6169   -1.8649 
 H                     4.1876    1.6433    0.5325 
 H                     4.4097   -0.1124    0.4481 
 C                     2.3498    0.5387    0.5694 
 C                     2.2202    0.4215    2.097 
 H                     1.7128    1.3527    0.1891 
 H                     2.6681    1.3292    2.5387 
 H                     2.8308   -0.432     2.4405 
 O                     1.8292   -0.7331    0.0045 
 C                     0.8685   -0.6656   -0.957 
 O                     0.4285    0.3877   -1.4265 
 C                     0.4045   -2.0444   -1.3888 
 H                     0.7266   -2.8243   -0.6878 
 H                    -0.6906   -2.0194   -1.4793 
 H                     0.8207   -2.2597   -2.3862 
 C                     0.7632    0.2614    2.5778 
 H                     0.7127    0.1951    3.6756 
 H                     0.3144   -0.6534    2.1616 
 H                     0.1407    1.1136    2.2603 
 
 ITRead=  0  0  0  0  0  0  0  0  0  0  0  0  0  0  0  0  0  0  0  0
 ITRead=  0  0  0  0  0  0  0  0  0  0  0  0  0  0  0  0  0  0  0  0
 ITRead=  0
 MicOpt= -1 -1 -1 -1 -1 -1 -1 -1 -1 -1 -1 -1 -1 -1 -1 -1 -1 -1 -1 -1
 MicOpt= -1 -1 -1 -1 -1 -1 -1 -1 -1 -1 -1 -1 -1 -1 -1 -1 -1 -1 -1 -1
 MicOpt= -1
 NAtoms=     41 NQM=       41 NQMF=       0 NMMI=      0 NMMIF=      0
                NMic=       0 NMicF=      0.
                    Isotopes and Nuclear Properties:
 (Nuclear quadrupole moments (NQMom) in fm**2, nuclear magnetic moments (NMagM)
  in nuclear magnetons)

  Atom         1           2           3           4           5           6           7           8           9          10
 IAtWgt=           1          12          12           1           1           1           1          12          12           1
 AtmWgt=   1.0078250  12.0000000  12.0000000   1.0078250   1.0078250   1.0078250   1.0078250  12.0000000  12.0000000   1.0078250
 NucSpn=           1           0           0           1           1           1           1           0           0           1
 AtZEff=  -0.0000000  -0.0000000  -0.0000000  -0.0000000  -0.0000000  -0.0000000  -0.0000000  -0.0000000  -0.0000000  -0.0000000
 NQMom=    0.0000000   0.0000000   0.0000000   0.0000000   0.0000000   0.0000000   0.0000000   0.0000000   0.0000000   0.0000000
 NMagM=    2.7928460   0.0000000   0.0000000   2.7928460   2.7928460   2.7928460   2.7928460   0.0000000   0.0000000   2.7928460
 AtZNuc=   1.0000000   6.0000000   6.0000000   1.0000000   1.0000000   1.0000000   1.0000000   6.0000000   6.0000000   1.0000000

  Atom        11          12          13          14          15          16          17          18          19          20
 IAtWgt=           1           1          16           1          12           1           1           1           1          12
 AtmWgt=   1.0078250   1.0078250  15.9949146   1.0078250  12.0000000   1.0078250   1.0078250   1.0078250   1.0078250  12.0000000
 NucSpn=           1           1           0           1           0           1           1           1           1           0
 AtZEff=  -0.0000000  -0.0000000  -0.0000000  -0.0000000  -0.0000000  -0.0000000  -0.0000000  -0.0000000  -0.0000000  -0.0000000
 NQMom=    0.0000000   0.0000000   0.0000000   0.0000000   0.0000000   0.0000000   0.0000000   0.0000000   0.0000000   0.0000000
 NMagM=    2.7928460   2.7928460   0.0000000   2.7928460   0.0000000   2.7928460   2.7928460   2.7928460   2.7928460   0.0000000
 AtZNuc=   1.0000000   1.0000000   8.0000000   1.0000000   6.0000000   1.0000000   1.0000000   1.0000000   1.0000000   6.0000000

  Atom        21          22          23          24          25          26          27          28          29          30
 IAtWgt=          12           1           1           1           1          12          12           1           1           1
 AtmWgt=  12.0000000   1.0078250   1.0078250   1.0078250   1.0078250  12.0000000  12.0000000   1.0078250   1.0078250   1.0078250
 NucSpn=           0           1           1           1           1           0           0           1           1           1
 AtZEff=  -0.0000000  -0.0000000  -0.0000000  -0.0000000  -0.0000000  -0.0000000  -0.0000000  -0.0000000  -0.0000000  -0.0000000
 NQMom=    0.0000000   0.0000000   0.0000000   0.0000000   0.0000000   0.0000000   0.0000000   0.0000000   0.0000000   0.0000000
 NMagM=    0.0000000   2.7928460   2.7928460   2.7928460   2.7928460   0.0000000   0.0000000   2.7928460   2.7928460   2.7928460
 AtZNuc=   6.0000000   1.0000000   1.0000000   1.0000000   1.0000000   6.0000000   6.0000000   1.0000000   1.0000000   1.0000000

  Atom        31          32          33          34          35          36          37          38          39          40
 IAtWgt=          16          12          16          12           1           1           1          12           1           1
 AtmWgt=  15.9949146  12.0000000  15.9949146  12.0000000   1.0078250   1.0078250   1.0078250  12.0000000   1.0078250   1.0078250
 NucSpn=           0           0           0           0           1           1           1           0           1           1
 AtZEff=  -0.0000000  -0.0000000  -0.0000000  -0.0000000  -0.0000000  -0.0000000  -0.0000000  -0.0000000  -0.0000000  -0.0000000
 NQMom=    0.0000000   0.0000000   0.0000000   0.0000000   0.0000000   0.0000000   0.0000000   0.0000000   0.0000000   0.0000000
 NMagM=    0.0000000   0.0000000   0.0000000   0.0000000   2.7928460   2.7928460   2.7928460   0.0000000   2.7928460   2.7928460
 AtZNuc=   8.0000000   6.0000000   8.0000000   6.0000000   1.0000000   1.0000000   1.0000000   6.0000000   1.0000000   1.0000000

  Atom        41
 IAtWgt=           1
 AtmWgt=   1.0078250
 NucSpn=           1
 AtZEff=  -0.0000000
 NQMom=    0.0000000
 NMagM=    2.7928460
 AtZNuc=   1.0000000
 Leave Link  101 at Sat Jan 21 11:03:04 2023, MaxMem=   131072000 cpu:               0.7 elap:               0.1
 (Enter /dragofs/sw/campus/0.2/software/gaussian/16.gaussian/gaussian/g16_legacy/l103.exe)

 GradGradGradGradGradGradGradGradGradGradGradGradGradGradGradGradGradGrad
 Berny optimization.
 Initialization pass.
 Trust Radius=3.00D-01 FncErr=1.00D-07 GrdErr=1.00D-07 EigMax=2.50D+02 EigMin=1.00D-04
 Number of steps in this run=      2 maximum allowed number of steps=      2.
 GradGradGradGradGradGradGradGradGradGradGradGradGradGradGradGradGradGrad

 Leave Link  103 at Sat Jan 21 11:03:04 2023, MaxMem=   131072000 cpu:               0.2 elap:               0.0
 (Enter /dragofs/sw/campus/0.2/software/gaussian/16.gaussian/gaussian/g16_legacy/l202.exe)
                          Input orientation:                          
 ---------------------------------------------------------------------
 Center     Atomic      Atomic             Coordinates (Angstroms)
 Number     Number       Type             X           Y           Z
 ---------------------------------------------------------------------
      1          1           0       -3.095400   -2.666600   -0.814600
      2          6           0       -3.184000   -2.502700    0.269300
      3          6           0       -3.537100   -1.030500    0.559900
      4          1           0       -3.953200   -3.187100    0.661800
      5          1           0       -2.220800   -2.778500    0.732800
      6          1           0       -3.671700   -0.878200    1.645700
      7          1           0       -4.498700   -0.774500    0.080200
      8          6           0       -2.470900   -0.038400    0.056500
      9          6           0       -2.805500    1.424300    0.436500
     10          1           0       -1.499200   -0.303700    0.527700
     11          1           0       -2.881500    1.488900    1.537900
     12          1           0       -3.804600    1.666400    0.031900
     13          8           0       -2.375600   -0.205800   -1.377000
     14          1           0       -1.510900    0.176300   -1.647200
     15          6           0       -1.775000    2.450600   -0.077200
     16          1           0       -1.732700    2.446900   -1.176900
     17          1           0       -0.760800    2.218000    0.285600
     18          1           0       -2.032200    3.471000    0.248800
     19          1           0        3.581800   -0.129500   -1.937600
     20          6           0        3.903200    0.812300   -1.466700
     21          6           0        3.792800    0.721500    0.069300
     22          1           0        4.941500    1.007100   -1.777000
     23          1           0        3.265400    1.616900   -1.864900
     24          1           0        4.187600    1.643300    0.532500
     25          1           0        4.409700   -0.112400    0.448100
     26          6           0        2.349800    0.538700    0.569400
     27          6           0        2.220200    0.421500    2.097000
     28          1           0        1.712800    1.352700    0.189100
     29          1           0        2.668100    1.329200    2.538700
     30          1           0        2.830800   -0.432000    2.440500
     31          8           0        1.829200   -0.733100    0.004500
     32          6           0        0.868500   -0.665600   -0.957000
     33          8           0        0.428500    0.387700   -1.426500
     34          6           0        0.404500   -2.044400   -1.388800
     35          1           0        0.726600   -2.824300   -0.687800
     36          1           0       -0.690600   -2.019400   -1.479300
     37          1           0        0.820700   -2.259700   -2.386200
     38          6           0        0.763200    0.261400    2.577800
     39          1           0        0.712700    0.195100    3.675600
     40          1           0        0.314400   -0.653400    2.161600
     41          1           0        0.140700    1.113600    2.260300
 ---------------------------------------------------------------------
                    Distance matrix (angstroms):
                    1          2          3          4          5
     1  H    0.000000
     2  C    1.099797   0.000000
     3  C    2.182011   1.541590   0.000000
     4  H    1.785076   1.101875   2.198737   0.000000
     5  H    1.780981   1.103926   2.195004   1.781349   0.000000
     6  H    3.095735   2.184337   1.104660   2.525534   2.559226
     7  H    2.519913   2.179649   1.104682   2.540958   3.103342
     8  C    2.838354   2.574212   1.540927   3.532409   2.833387
     9  C    4.287745   3.948740   2.564471   4.757414   4.253610
    10  H    3.151654   2.782251   2.163865   3.788680   2.586002
    11  H    4.779978   4.199253   2.780948   4.876584   4.392654
    12  H    4.471512   4.221717   2.761089   4.896460   4.770411
    13  O    2.624870   2.939314   2.404328   3.941279   3.330766
    14  H    3.359456   3.694493   3.230038   4.754868   3.859948
    15  C    5.336005   5.161446   3.953347   6.088870   5.310209
    16  H    5.304347   5.356893   4.285399   6.328775   5.584801
    17  H    5.524501   5.306333   4.282036   6.288724   5.224615
    18  H    6.319126   6.083762   4.756575   6.941981   6.271051
    19  H    7.230699   7.501902   7.597897   8.537097   6.915085
    20  C    7.842728   8.014445   7.928498   9.069109   7.432027
    21  C    7.727082   7.688381   7.552326   8.696478   6.989536
    22  H    8.888985   9.084591   9.027711  10.131868   8.481062
    23  H    7.740238   7.944852   7.691709   9.031656   7.494396
    24  H    8.569248   8.461624   8.174408   9.466895   7.788455
    25  H    8.027757   7.963026   8.000440   8.912774   7.152110
    26  C    6.468354   6.321639   6.092460   7.322427   5.649858
    27  C    6.802160   6.410679   6.133309   7.293330   5.641234
    28  H    6.346729   6.232912   5.777420   7.275767   5.730238
    29  H    7.773607   7.353959   6.927362   8.231727   6.635949
    30  H    7.121022   6.721587   6.666709   7.535052   5.825887
    31  O    5.353600   5.322948   5.403156   6.315878   4.595278
    32  C    4.442610   4.615355   4.673698   5.676906   4.106525
    33  O    4.703301   4.927505   4.656507   6.028224   4.658990
    34  C    3.600852   3.979531   4.512387   4.949775   3.454315
    35  H    3.827353   4.038844   4.790993   4.884012   3.272212
    36  H    2.577549   3.083541   3.638519   4.073376   2.794840
    37  H    4.239261   4.811273   5.401931   5.739381   4.387258
    38  C    5.913574   5.343202   4.922754   6.148792   4.642119
    39  H    6.546209   5.836547   5.410220   6.503298   5.109578
    40  H    4.953532   4.386287   4.188281   5.184732   3.603437
    41  H    5.849553   5.300503   4.584183   6.149084   4.801914
                    6          7          8          9         10
     6  H    0.000000
     7  H    1.773548   0.000000
     8  C    2.161652   2.157401   0.000000
     9  C    2.741163   2.797963   1.547853   0.000000
    10  H    2.509926   3.069024   1.112032   2.168115   0.000000
    11  H    2.497839   3.140574   2.166976   1.105907   2.478845
    12  H    3.016124   2.538129   2.164649   1.104769   3.072781
    13  O    3.356890   2.637121   1.446384   2.476050   2.098939
    14  H    4.077281   3.579788   1.967305   2.752326   2.227269
    15  C    4.200805   4.224285   2.587909   1.542436   2.833397
    16  H    4.773163   4.428146   2.871050   2.190815   3.244377
    17  H    4.462025   4.792613   2.840470   2.198529   2.638715
    18  H    4.853332   4.912873   3.541938   2.195952   3.822334
    19  H    8.124891   8.353563   6.373375   6.989152   5.650187
    20  C    8.362053   8.689232   6.608554   7.000241   5.865920
    21  C    7.795052   8.425385   6.309639   6.645775   5.409846
    22  H    9.458142   9.784716   7.707040   8.067816   6.965088
    23  H    8.165365   8.353649   6.271916   6.495334   5.666979
    24  H    8.328612   9.027854   6.884062   6.997187   6.010867
    25  H    8.205469   8.940543   6.892132   7.377038   5.912532
    26  C    6.278892   6.990405   4.882137   5.232501   3.940327
    27  C    6.050403   7.116285   5.136299   5.387071   4.101531
    28  H    6.007615   6.566549   4.410906   4.525635   3.629773
    29  H    6.772232   7.863383   5.868643   5.864178   4.906819
    30  H    6.566072   7.707781   5.826354   6.263365   4.735416
    31  O    5.742342   6.328488   4.356165   5.130443   3.396523
    32  C    5.237620   5.467584   3.545723   4.450595   2.818033
    33  O    5.277552   5.281870   3.284413   3.873508   2.830717
    34  C    5.213791   5.273706   3.792210   5.066330   3.213578
    35  H    5.345799   5.665268   4.305720   5.638296   3.575619
    36  H    4.467093   4.299237   3.074494   4.472378   2.761432
    37  H    6.192448   6.048551   4.662144   5.889721   4.206981
    38  C    4.672883   5.915969   4.111719   4.321241   3.104948
    39  H    4.949286   6.405132   4.825735   4.937655   3.879507
    40  H    4.025628   5.245267   3.545076   4.126328   2.465981
    41  H    4.345042   5.462764   3.606147   3.478919   2.774872
                   11         12         13         14         15
    11  H    0.000000
    12  H    1.775290   0.000000
    13  O    3.409485   2.744480   0.000000
    14  H    3.707604   3.209491   0.983216   0.000000
    15  C    2.181228   2.178566   3.017725   2.776164   0.000000
    16  H    3.099620   2.522528   2.736819   2.329378   1.100519
    17  H    2.568504   3.103763   3.353599   2.909795   1.101966
    18  H    2.512332   2.538706   4.034849   3.836876   1.101655
    19  H    7.514823   7.852585   5.984205   5.110131   6.230033
    20  C    7.451011   7.898447   6.361439   5.454315   6.070971
    21  C    6.876916   7.656025   6.403189   5.601147   5.831950
    22  H    8.509995   8.955505   7.427724   6.506961   7.077032
    23  H    7.027077   7.320191   5.948207   4.993572   5.412630
    24  H    7.141908   8.007896   7.081028   6.275037   6.047815
    25  H    7.544099   8.414991   7.027091   6.287061   6.715313
    26  C    5.404385   6.279909   5.164509   4.466504   4.592105
    27  C    5.242068   6.489424   5.795132   5.291528   4.980564
    28  H    4.790136   5.528546   4.647215   3.892063   3.666204
    29  H    5.641380   6.949359   6.567179   6.026191   5.276515
    30  H    6.093842   7.364317   6.459959   5.994137   5.988455
    31  O    5.429484   6.123565   4.457234   3.835543   4.809665
    32  C    4.992885   5.315450   3.303332   2.616623   4.180053
    33  O    4.577817   4.656301   2.866648   1.963332   3.306294
    34  C    5.643366   5.788346   3.333098   2.943983   5.164837
    35  H    6.047795   6.419979   4.117667   3.863995   5.869873
    36  H    5.119737   5.056268   2.477667   2.349932   4.808608
    37  H    6.569387   6.531070   3.931072   3.452039   5.852868
    38  C    3.983966   5.414834   5.070580   4.798895   4.275989
    39  H    4.377437   5.987259   5.935241   5.768618   5.035816
    40  H    3.897721   5.184906   4.467453   4.304309   4.360348
    41  H    3.129921   4.564729   4.615467   4.344522   3.304751
                   16         17         18         19         20
    16  H    0.000000
    17  H    1.770845   0.000000
    18  H    1.780759   1.785447   0.000000
    19  H    5.954865   5.414014   7.018614   0.000000
    20  C    5.875310   5.176818   6.726113   1.100923   0.000000
    21  C    5.921247   4.798080   6.443803   2.190062   1.542637
    22  H    6.854056   6.183593   7.668583   1.779448   1.101045
    23  H    5.113047   4.603939   5.997498   1.776318   1.101242
    24  H    6.214320   4.987775   6.488982   3.100195   2.183631
    25  H    6.849797   5.673733   7.374181   2.525327   2.185880
    26  C    4.832970   3.546325   5.282338   2.872171   2.575580
    27  C    5.517797   3.923639   5.549613   4.293664   3.960451
    28  H    3.864544   2.622356   4.302997   3.195768   2.798492
    29  H    5.867025   4.198069   5.650112   4.795823   4.223255
    30  H    6.496090   4.956378   6.609518   4.452333   4.238459
    31  O    4.918865   3.936510   5.713541   2.684715   2.975595
    32  C    4.062297   3.537488   5.194177   2.934447   3.413706
    33  O    2.995562   2.774116   4.285839   3.236050   3.500777
    34  C    4.978383   4.725420   6.248110   3.750101   4.517489
    35  H    5.837202   5.346462   6.936786   4.120208   4.891046
    36  H    4.596222   4.590791   5.910221   4.694163   5.396451
    37  H    5.489476   5.448803   6.922657   3.516058   4.447974
    38  C    5.010359   3.377135   4.851807   5.337241   5.149861
    39  H    5.881950   4.213719   5.478043   6.312299   6.083048
    40  H    4.994803   3.594491   5.116250   5.268189   5.309644
    41  H    4.135415   2.435537   3.784833   5.568557   5.304500
                   21         22         23         24         25
    21  C    0.000000
    22  H    2.193149   0.000000
    23  H    2.195682   1.785747   0.000000
    24  H    1.104598   2.511355   2.568789   0.000000
    25  H    1.104285   2.546991   3.106424   1.771704   0.000000
    26  C    1.538104   3.527308   2.815432   2.144531   2.163754
    27  C    2.583532   4.770354   4.268264   2.794838   2.792460
    28  H    2.176962   3.795984   2.588298   2.515354   3.080076
    29  H    2.780681   4.888493   4.453227   2.536213   3.079284
    30  H    2.806884   4.930859   4.787832   3.128616   2.562172
    31  O    2.444542   3.986032   3.328637   3.389412   2.690916
    32  C    3.395419   4.478801   3.432087   4.308834   3.849732
    33  O    3.696939   4.568772   3.122680   4.420978   4.428790
    34  C    4.610514   5.481489   4.670818   5.621599   4.811284
    35  H    4.748419   5.799256   5.249317   5.781618   4.712738
    36  H    5.478282   6.400694   5.387142   6.423359   5.776208
    37  H    4.873439   5.293779   4.612628   5.923532   5.052235
    38  C    3.960144   6.080998   5.275980   4.221305   4.239376
    39  H    4.771741   6.947873   6.263779   4.904212   4.917227
    40  H    4.285713   6.299197   5.484101   4.788578   4.472163
    41  H    4.276922   6.273660   5.199455   4.432073   4.797031
                   26         27         28         29         30
    26  C    0.000000
    27  C    1.537561   0.000000
    28  H    1.101360   2.182813   0.000000
    29  H    2.145774   1.104370   2.536488   0.000000
    30  H    2.162090   1.104213   3.082836   1.771423   0.000000
    31  O    1.485803   2.421681   2.097186   3.373278   2.651030
    32  C    2.444276   3.512235   2.469802   4.408821   3.930419
    33  O    2.774493   3.953022   2.278336   4.650273   4.625650
    34  C    3.780363   4.639852   3.967582   5.650692   4.811476
    35  H    3.940190   4.530030   4.380511   5.606361   4.465089
    36  H    4.470467   5.217343   4.464409   6.215972   5.503174
    37  H    4.347961   5.408005   4.525201   6.367710   5.538774
    38  C    2.574464   1.542611   2.792591   2.184118   2.185091
    39  H    3.527979   2.194491   3.807351   2.530279   2.530825
    40  H    2.845884   2.188985   3.141770   3.100453   2.541470
    41  H    2.840735   2.197724   2.611233   2.551811   3.107731
                   31         32         33         34         35
    31  O    0.000000
    32  C    1.360876   0.000000
    33  O    2.294758   1.234290   0.000000
    34  C    2.385490   1.517510   2.432511   0.000000
    35  H    2.463356   2.180044   3.309303   1.096993   0.000000
    36  H    3.194624   2.129874   2.655052   1.099117   1.811848
    37  H    3.010486   2.141507   2.843162   1.101991   1.792258
    38  C    2.957577   3.655848   4.020248   4.602097   4.492998
    39  H    3.947797   4.714452   5.113638   5.546034   5.306244
    40  H    2.637054   3.167466   3.737830   3.814229   3.605800
    41  H    3.368971   3.747835   3.768588   4.833062   4.953951
                   36         37         38         39         40
    36  H    0.000000
    37  H    1.778831   0.000000
    38  C    4.876027   5.567814   0.000000
    39  H    5.783274   6.540881   1.100959   0.000000
    40  H    4.016483   4.849642   1.100683   1.780672   0.000000
    41  H    4.948874   5.781999   1.102070   1.781544   1.778258
                   41
    41  H    0.000000
 Stoichiometry    C12H26O3
 Framework group  C1[X(C12H26O3)]
 Deg. of freedom   117
 Full point group                 C1      NOp   1
 Largest Abelian subgroup         C1      NOp   1
 Largest concise Abelian subgroup C1      NOp   1
                         Standard orientation:                         
 ---------------------------------------------------------------------
 Center     Atomic      Atomic             Coordinates (Angstroms)
 Number     Number       Type             X           Y           Z
 ---------------------------------------------------------------------
      1          1           0       -3.454382   -2.177468    0.790906
      2          6           0       -3.523985   -1.332243    1.491123
      3          6           0       -3.654427   -0.005928    0.716285
      4          1           0       -4.389342   -1.499992    2.152293
      5          1           0       -2.615753   -1.337350    2.118610
      6          1           0       -3.771260    0.836911    1.420733
      7          1           0       -4.563944   -0.026408    0.089641
      8          6           0       -2.448684    0.285710   -0.197820
      9          6           0       -2.562796    1.661785   -0.897278
     10          1           0       -1.530522    0.292568    0.429513
     11          1           0       -2.634915    2.443193   -0.118027
     12          1           0       -3.511924    1.684467   -1.462217
     13          8           0       -2.370869   -0.792983   -1.158233
     14          1           0       -1.457091   -0.780293   -1.520949
     15          6           0       -1.387167    1.976001   -1.845051
     16          1           0       -1.339259    1.244741   -2.666091
     17          1           0       -0.421434    1.931237   -1.316198
     18          1           0       -1.490651    2.978650   -2.289605
     19          1           0        3.534076   -1.753231   -1.015884
     20          6           0        3.990015   -0.776686   -1.240631
     21          6           0        3.857993    0.178795   -0.036739
     22          1           0        5.047632   -0.948793   -1.493862
     23          1           0        3.482290   -0.370099   -2.129245
     24          1           0        4.383556    1.127389   -0.246714
     25          1           0        4.340785   -0.260113    0.854169
     26          6           0        2.400897    0.528804    0.309856
     27          6           0        2.245990    1.461179    1.522611
     28          1           0        1.895262    0.954089   -0.571313
     29          1           0        2.822072    2.379341    1.311092
     30          1           0        2.719831    0.985120    2.399041
     31          8           0        1.699164   -0.733759    0.657876
     32          6           0        0.765223   -1.211902   -0.208793
     33          8           0        0.490731   -0.688516   -1.292395
     34          6           0        0.102627   -2.472708    0.314820
     35          1           0        0.300087   -2.627229    1.382775
     36          1           0       -0.975819   -2.394533    0.117583
     37          1           0        0.487914   -3.334916   -0.253102
     38          6           0        0.778567    1.816916    1.838476
     39          1           0        0.712082    2.495675    2.702754
     40          1           0        0.200378    0.910349    2.073715
     41          1           0        0.292608    2.310417    0.981237
 ---------------------------------------------------------------------
 Rotational constants (GHZ):           0.7555391           0.3083760           0.2925585
 Leave Link  202 at Sat Jan 21 11:03:05 2023, MaxMem=   131072000 cpu:               0.4 elap:               0.1
 (Enter /dragofs/sw/campus/0.2/software/gaussian/16.gaussian/gaussian/g16_legacy/l301.exe)
 Standard basis: 6-31G(d) (6D, 7F)
 Ernie: Thresh=  0.10000D-02 Tol=  0.10000D-05 Strict=F.
 There are   277 symmetry adapted cartesian basis functions of A   symmetry.
 There are   277 symmetry adapted basis functions of A   symmetry.
   277 basis functions,   524 primitive gaussians,   277 cartesian basis functions
    61 alpha electrons       61 beta electrons
       nuclear repulsion energy      1127.1456094940 Hartrees.
 IExCor=  402 DFT=T Ex=B Corr=LYP ExCW=0 ScaHFX=  0.000000
 ScaDFX=  1.000000  1.000000  1.000000  1.000000 ScalE2=  1.000000  1.000000
 IRadAn=      5 IRanWt=     -1 IRanGd=            0 ICorTp=0 IEmpDi=131
 NAtoms=   41 NActive=   41 NUniq=   41 SFac= 1.00D+00 NAtFMM=   60 NAOKFM=F Big=F
 Integral buffers will be    131072 words long.
 Raffenetti 2 integral format.
 Two-electron integral symmetry is turned on.
 R6Disp:  Grimme-D3 Dispersion energy=       -0.0541323177 Hartrees.
 Nuclear repulsion after empirical dispersion term =     1127.0914771763 Hartrees.
 Leave Link  301 at Sat Jan 21 11:03:05 2023, MaxMem=   131072000 cpu:               0.7 elap:               0.1
 (Enter /dragofs/sw/campus/0.2/software/gaussian/16.gaussian/gaussian/g16_legacy/l302.exe)
 NPDir=0 NMtPBC=     1 NCelOv=     1 NCel=       1 NClECP=     1 NCelD=      1
         NCelK=      1 NCelE2=     1 NClLst=     1 CellRange=     0.0.
 One-electron integrals computed using PRISM.
 One-electron integral symmetry used in STVInt
 NBasis=   277 RedAO= T EigKep=  3.28D-03  NBF=   277
 NBsUse=   277 1.00D-06 EigRej= -1.00D+00 NBFU=   277
 Precomputing XC quadrature grid using
 IXCGrd= 4 IRadAn=           5 IRanWt=          -1 IRanGd=           0 AccXCQ= 0.00D+00.
 Generated NRdTot=       0 NPtTot=           0 NUsed=           0 NTot=          32
 NSgBfM=   276   276   276   276   276 MxSgAt=    41 MxSgA2=    41.
 Leave Link  302 at Sat Jan 21 11:03:05 2023, MaxMem=   131072000 cpu:               3.9 elap:               0.5
 (Enter /dragofs/sw/campus/0.2/software/gaussian/16.gaussian/gaussian/g16_legacy/l303.exe)
 DipDrv:  MaxL=1.
 Leave Link  303 at Sat Jan 21 11:03:05 2023, MaxMem=   131072000 cpu:               0.5 elap:               0.1
 (Enter /dragofs/sw/campus/0.2/software/gaussian/16.gaussian/gaussian/g16_legacy/l401.exe)
 ExpMin= 1.61D-01 ExpMax= 5.48D+03 ExpMxC= 8.25D+02 IAcc=3 IRadAn=         5 AccDes= 0.00D+00
 Harris functional with IExCor=  402 and IRadAn=       5 diagonalized for initial guess.
 HarFok:  IExCor=  402 AccDes= 0.00D+00 IRadAn=         5 IDoV= 1 UseB2=F ITyADJ=14
 ICtDFT=  3500011 ScaDFX=  1.000000  1.000000  1.000000  1.000000
 FoFCou: FMM=F IPFlag=           0 FMFlag=      100000 FMFlg1=           0
         NFxFlg=           0 DoJE=T BraDBF=F KetDBF=T FulRan=T
         wScrn=  0.000000 ICntrl=       500 IOpCl=  0 I1Cent=   200000004 NGrid=           0
         NMat0=    1 NMatS0=      1 NMatT0=    0 NMatD0=    1 NMtDS0=    0 NMtDT0=    0
 Petite list used in FoFCou.
 Harris En= -698.803037888302    
 JPrj=0 DoOrth=F DoCkMO=F.
 Leave Link  401 at Sat Jan 21 11:03:08 2023, MaxMem=   131072000 cpu:              19.1 elap:               2.4
 (Enter /dragofs/sw/campus/0.2/software/gaussian/16.gaussian/gaussian/g16_legacy/l502.exe)
 Integral symmetry usage will be decided dynamically.
 Closed shell SCF:
 Using DIIS extrapolation, IDIIS=  1040.
 NGot=   131072000 LenX=   130912832 LenY=   130835662
 Requested convergence on RMS density matrix=1.00D-08 within 128 cycles.
 Requested convergence on MAX density matrix=1.00D-06.
 Requested convergence on             energy=1.00D-06.
 No special actions if energy rises.
 Fock matrices will be formed incrementally for  20 cycles.
 Integral accuracy reduced to 1.0D-05 until final iterations.

 Cycle   1  Pass 0  IDiag  1:
 FoFJK:  IHMeth= 1 ICntrl=     500 DoSepK=F KAlg= 0 I1Cent=           0 FoldK=F
 IRaf= 860000000 NMat=       1 IRICut=       1 DoRegI=T DoRafI=F ISym2E= 0 IDoP0=0 IntGTp=1.
 FoFCou: FMM=F IPFlag=           0 FMFlag=      100000 FMFlg1=           0
         NFxFlg=           0 DoJE=T BraDBF=F KetDBF=F FulRan=T
         wScrn=  0.000000 ICntrl=       500 IOpCl=  0 I1Cent=           0 NGrid=           0
         NMat0=    1 NMatS0=      1 NMatT0=    0 NMatD0=    1 NMtDS0=    0 NMtDT0=    0
 Symmetry not used in FoFCou.
 E= -697.791946868326    
 DIIS: error= 3.30D-02 at cycle   1 NSaved=   1.
 NSaved= 1 IEnMin= 1 EnMin= -697.791946868326     IErMin= 1 ErrMin= 3.30D-02
 ErrMax= 3.30D-02  0.00D+00 EMaxC= 1.00D-01 BMatC= 5.27D-01 BMatP= 5.27D-01
 IDIUse=3 WtCom= 6.70D-01 WtEn= 3.30D-01
 Coeff-Com:  0.100D+01
 Coeff-En:   0.100D+01
 Coeff:      0.100D+01
 Gap=     0.032 Goal=   None    Shift=    0.000
 GapD=    0.032 DampG=0.250 DampE=0.500 DampFc=0.2500 IDamp=-1.
 Damping current iteration by 2.50D-01
 RMSDP=7.40D-03 MaxDP=2.19D-01              OVMax= 2.61D-01

 Cycle   2  Pass 0  IDiag  1:
 RMSU=  1.84D-03    CP:  9.89D-01
 E= -697.989102641949     Delta-E=       -0.197155773623 Rises=F Damp=T
 DIIS: error= 1.35D-02 at cycle   2 NSaved=   2.
 NSaved= 2 IEnMin= 2 EnMin= -697.989102641949     IErMin= 2 ErrMin= 1.35D-02
 ErrMax= 1.35D-02  0.00D+00 EMaxC= 1.00D-01 BMatC= 7.66D-02 BMatP= 5.27D-01
 IDIUse=3 WtCom= 8.65D-01 WtEn= 1.35D-01
 Coeff-Com: -0.439D+00 0.144D+01
 Coeff-En:   0.000D+00 0.100D+01
 Coeff:     -0.380D+00 0.138D+01
 Gap=     0.135 Goal=   None    Shift=    0.000
 RMSDP=1.96D-03 MaxDP=4.91D-02 DE=-1.97D-01 OVMax= 2.20D-01

 Cycle   3  Pass 0  IDiag  1:
 RMSU=  1.74D-03    CP:  9.76D-01  1.48D+00
 E= -698.225997077995     Delta-E=       -0.236894436046 Rises=F Damp=F
 DIIS: error= 2.56D-02 at cycle   3 NSaved=   3.
 NSaved= 3 IEnMin= 3 EnMin= -698.225997077995     IErMin= 2 ErrMin= 1.35D-02
 ErrMax= 2.56D-02  0.00D+00 EMaxC= 1.00D-01 BMatC= 1.25D-01 BMatP= 7.66D-02
 IDIUse=2 WtCom= 0.00D+00 WtEn= 1.00D+00
 Coeff-En:   0.000D+00 0.000D+00 0.100D+01
 Coeff:      0.000D+00 0.000D+00 0.100D+01
 Gap=     0.112 Goal=   None    Shift=    0.000
 RMSDP=4.68D-03 MaxDP=2.30D-01 DE=-2.37D-01 OVMax= 5.27D-01

 Cycle   4  Pass 0  IDiag  1:
 RMSU=  2.50D-03    CP:  9.89D-01  1.86D+00 -1.23D+00
 E= -697.154950841969     Delta-E=        1.071046236026 Rises=F Damp=F
 DIIS: error= 9.37D-02 at cycle   4 NSaved=   4.
 NSaved= 4 IEnMin= 3 EnMin= -698.225997077995     IErMin= 2 ErrMin= 1.35D-02
 ErrMax= 9.37D-02  0.00D+00 EMaxC= 1.00D-01 BMatC= 1.41D+00 BMatP= 7.66D-02
 IDIUse=2 WtCom= 0.00D+00 WtEn= 1.00D+00
 Coeff-En:   0.000D+00 0.000D+00 0.855D+00 0.145D+00
 Coeff:      0.000D+00 0.000D+00 0.855D+00 0.145D+00
 Gap=     0.152 Goal=   None    Shift=    0.000
 RMSDP=2.75D-03 MaxDP=1.30D-01 DE= 1.07D+00 OVMax= 2.69D-01

 Cycle   5  Pass 0  IDiag  1:
 RMSU=  6.36D-04    CP:  9.86D-01  1.45D+00 -1.41D-01  3.11D-01
 E= -698.209505484482     Delta-E=       -1.054554642513 Rises=F Damp=F
 DIIS: error= 2.75D-02 at cycle   5 NSaved=   5.
 NSaved= 5 IEnMin= 3 EnMin= -698.225997077995     IErMin= 2 ErrMin= 1.35D-02
 ErrMax= 2.75D-02  0.00D+00 EMaxC= 1.00D-01 BMatC= 1.52D-01 BMatP= 7.66D-02
 IDIUse=2 WtCom= 0.00D+00 WtEn= 1.00D+00
 Coeff-En:   0.000D+00 0.000D+00 0.524D+00 0.000D+00 0.476D+00
 Coeff:      0.000D+00 0.000D+00 0.524D+00 0.000D+00 0.476D+00
 Gap=     0.156 Goal=   None    Shift=    0.000
 RMSDP=1.15D-03 MaxDP=5.76D-02 DE=-1.05D+00 OVMax= 1.10D-01

 Cycle   6  Pass 0  IDiag  1:
 RMSU=  1.70D-04    CP:  9.82D-01  1.41D+00  4.26D-01  1.13D-01  5.80D-01
 E= -698.333249143924     Delta-E=       -0.123743659442 Rises=F Damp=F
 DIIS: error= 1.47D-03 at cycle   6 NSaved=   6.
 NSaved= 6 IEnMin= 6 EnMin= -698.333249143924     IErMin= 6 ErrMin= 1.47D-03
 ErrMax= 1.47D-03  0.00D+00 EMaxC= 1.00D-01 BMatC= 9.77D-04 BMatP= 7.66D-02
 IDIUse=3 WtCom= 9.85D-01 WtEn= 1.47D-02
 Coeff-Com: -0.274D-01 0.500D-01 0.223D+00-0.372D-01 0.303D+00 0.489D+00
 Coeff-En:   0.000D+00 0.000D+00 0.000D+00 0.000D+00 0.000D+00 0.100D+01
 Coeff:     -0.270D-01 0.493D-01 0.219D+00-0.366D-01 0.298D+00 0.497D+00
 Gap=     0.162 Goal=   None    Shift=    0.000
 RMSDP=1.42D-04 MaxDP=8.02D-03 DE=-1.24D-01 OVMax= 1.04D-02

 Cycle   7  Pass 0  IDiag  1:
 RMSU=  8.72D-05    CP:  9.82D-01  1.44D+00  4.16D-01  1.32D-01  6.18D-01
                    CP:  5.34D-01
 E= -698.333676868327     Delta-E=       -0.000427724403 Rises=F Damp=F
 DIIS: error= 1.26D-03 at cycle   7 NSaved=   7.
 NSaved= 7 IEnMin= 7 EnMin= -698.333676868327     IErMin= 7 ErrMin= 1.26D-03
 ErrMax= 1.26D-03  0.00D+00 EMaxC= 1.00D-01 BMatC= 5.07D-04 BMatP= 9.77D-04
 IDIUse=3 WtCom= 9.87D-01 WtEn= 1.26D-02
 Coeff-Com: -0.125D-01 0.201D-01 0.880D-01-0.192D-01 0.120D+00 0.357D+00
 Coeff-Com:  0.446D+00
 Coeff-En:   0.000D+00 0.000D+00 0.000D+00 0.000D+00 0.000D+00 0.344D+00
 Coeff-En:   0.656D+00
 Coeff:     -0.124D-01 0.198D-01 0.869D-01-0.189D-01 0.118D+00 0.357D+00
 Coeff:      0.449D+00
 Gap=     0.160 Goal=   None    Shift=    0.000
 RMSDP=7.14D-05 MaxDP=3.06D-03 DE=-4.28D-04 OVMax= 4.44D-03

 Cycle   8  Pass 0  IDiag  1:
 RMSU=  3.14D-05    CP:  9.82D-01  1.44D+00  4.23D-01  1.22D-01  6.16D-01
                    CP:  6.11D-01  3.57D-01
 E= -698.334033275941     Delta-E=       -0.000356407614 Rises=F Damp=F
 DIIS: error= 4.37D-04 at cycle   8 NSaved=   8.
 NSaved= 8 IEnMin= 8 EnMin= -698.334033275941     IErMin= 8 ErrMin= 4.37D-04
 ErrMax= 4.37D-04  0.00D+00 EMaxC= 1.00D-01 BMatC= 5.20D-05 BMatP= 5.07D-04
 IDIUse=3 WtCom= 9.96D-01 WtEn= 4.37D-03
 Coeff-Com:  0.211D-02-0.547D-02 0.120D-01-0.115D-02 0.229D-02 0.156D+00
 Coeff-Com:  0.256D+00 0.577D+00
 Coeff-En:   0.000D+00 0.000D+00 0.000D+00 0.000D+00 0.000D+00 0.000D+00
 Coeff-En:   0.000D+00 0.100D+01
 Coeff:      0.210D-02-0.544D-02 0.119D-01-0.114D-02 0.228D-02 0.156D+00
 Coeff:      0.255D+00 0.579D+00
 Gap=     0.161 Goal=   None    Shift=    0.000
 RMSDP=2.46D-05 MaxDP=1.36D-03 DE=-3.56D-04 OVMax= 1.49D-03

 Cycle   9  Pass 0  IDiag  1:
 RMSU=  6.90D-06    CP:  9.82D-01  1.44D+00  4.30D-01  1.22D-01  6.05D-01
                    CP:  6.42D-01  4.57D-01  5.72D-01
 E= -698.334071966032     Delta-E=       -0.000038690092 Rises=F Damp=F
 DIIS: error= 6.58D-05 at cycle   9 NSaved=   9.
 NSaved= 9 IEnMin= 9 EnMin= -698.334071966032     IErMin= 9 ErrMin= 6.58D-05
 ErrMax= 6.58D-05  0.00D+00 EMaxC= 1.00D-01 BMatC= 1.33D-06 BMatP= 5.20D-05
 IDIUse=1 WtCom= 1.00D+00 WtEn= 0.00D+00
 Coeff-Com:  0.146D-02-0.282D-02 0.424D-02-0.589D-04-0.289D-02 0.710D-01
 Coeff-Com:  0.125D+00 0.324D+00 0.480D+00
 Coeff:      0.146D-02-0.282D-02 0.424D-02-0.589D-04-0.289D-02 0.710D-01
 Coeff:      0.125D+00 0.324D+00 0.480D+00
 Gap=     0.160 Goal=   None    Shift=    0.000
 RMSDP=4.21D-06 MaxDP=1.54D-04 DE=-3.87D-05 OVMax= 1.78D-04

 Initial convergence to 1.0D-05 achieved.  Increase integral accuracy.
 Cycle  10  Pass 1  IDiag  1:
 E= -698.334098308369     Delta-E=       -0.000026342337 Rises=F Damp=F
 DIIS: error= 1.69D-05 at cycle   1 NSaved=   1.
 NSaved= 1 IEnMin= 1 EnMin= -698.334098308369     IErMin= 1 ErrMin= 1.69D-05
 ErrMax= 1.69D-05  0.00D+00 EMaxC= 1.00D-01 BMatC= 1.57D-07 BMatP= 1.57D-07
 IDIUse=1 WtCom= 1.00D+00 WtEn= 0.00D+00
 Coeff-Com:  0.100D+01
 Coeff:      0.100D+01
 Gap=     0.160 Goal=   None    Shift=    0.000
 RMSDP=4.21D-06 MaxDP=1.54D-04 DE=-2.63D-05 OVMax= 1.40D-04

 Cycle  11  Pass 1  IDiag  1:
 RMSU=  5.87D-06    CP:  1.00D+00
 E= -698.334098229473     Delta-E=        0.000000078896 Rises=F Damp=F
 DIIS: error= 2.94D-05 at cycle   2 NSaved=   2.
 NSaved= 2 IEnMin= 1 EnMin= -698.334098308369     IErMin= 1 ErrMin= 1.69D-05
 ErrMax= 2.94D-05  0.00D+00 EMaxC= 1.00D-01 BMatC= 2.70D-07 BMatP= 1.57D-07
 IDIUse=1 WtCom= 1.00D+00 WtEn= 0.00D+00
 Coeff-Com:  0.585D+00 0.415D+00
 Coeff:      0.585D+00 0.415D+00
 Gap=     0.160 Goal=   None    Shift=    0.000
 RMSDP=2.28D-06 MaxDP=1.09D-04 DE= 7.89D-08 OVMax= 1.62D-04

 Cycle  12  Pass 1  IDiag  1:
 RMSU=  2.13D-06    CP:  1.00D+00  8.63D-01
 E= -698.334098386340     Delta-E=       -0.000000156867 Rises=F Damp=F
 DIIS: error= 2.13D-05 at cycle   3 NSaved=   3.
 NSaved= 3 IEnMin= 3 EnMin= -698.334098386340     IErMin= 1 ErrMin= 1.69D-05
 ErrMax= 2.13D-05  0.00D+00 EMaxC= 1.00D-01 BMatC= 9.18D-08 BMatP= 1.57D-07
 IDIUse=1 WtCom= 1.00D+00 WtEn= 0.00D+00
 Coeff-Com:  0.180D+00 0.339D+00 0.481D+00
 Coeff:      0.180D+00 0.339D+00 0.481D+00
 Gap=     0.160 Goal=   None    Shift=    0.000
 RMSDP=1.21D-06 MaxDP=7.19D-05 DE=-1.57D-07 OVMax= 1.09D-04

 Cycle  13  Pass 1  IDiag  1:
 RMSU=  8.93D-07    CP:  1.00D+00  8.85D-01  6.22D-01
 E= -698.334098438799     Delta-E=       -0.000000052459 Rises=F Damp=F
 DIIS: error= 7.97D-06 at cycle   4 NSaved=   4.
 NSaved= 4 IEnMin= 4 EnMin= -698.334098438799     IErMin= 4 ErrMin= 7.97D-06
 ErrMax= 7.97D-06  0.00D+00 EMaxC= 1.00D-01 BMatC= 2.26D-08 BMatP= 9.18D-08
 IDIUse=1 WtCom= 1.00D+00 WtEn= 0.00D+00
 Coeff-Com:  0.113D-01 0.175D+00 0.381D+00 0.433D+00
 Coeff:      0.113D-01 0.175D+00 0.381D+00 0.433D+00
 Gap=     0.160 Goal=   None    Shift=    0.000
 RMSDP=5.00D-07 MaxDP=2.01D-05 DE=-5.25D-08 OVMax= 3.67D-05

 Cycle  14  Pass 1  IDiag  1:
 RMSU=  1.45D-07    CP:  1.00D+00  8.94D-01  6.63D-01  4.77D-01
 E= -698.334098457769     Delta-E=       -0.000000018969 Rises=F Damp=F
 DIIS: error= 1.33D-06 at cycle   5 NSaved=   5.
 NSaved= 5 IEnMin= 5 EnMin= -698.334098457769     IErMin= 5 ErrMin= 1.33D-06
 ErrMax= 1.33D-06  0.00D+00 EMaxC= 1.00D-01 BMatC= 6.58D-10 BMatP= 2.26D-08
 IDIUse=1 WtCom= 1.00D+00 WtEn= 0.00D+00
 Coeff-Com:  0.160D-02 0.102D+00 0.230D+00 0.277D+00 0.390D+00
 Coeff:      0.160D-02 0.102D+00 0.230D+00 0.277D+00 0.390D+00
 Gap=     0.160 Goal=   None    Shift=    0.000
 RMSDP=9.67D-08 MaxDP=4.42D-06 DE=-1.90D-08 OVMax= 4.97D-06

 Cycle  15  Pass 1  IDiag  1:
 RMSU=  3.72D-08    CP:  1.00D+00  8.95D-01  6.60D-01  4.66D-01  3.93D-01
 E= -698.334098458253     Delta-E=       -0.000000000485 Rises=F Damp=F
 DIIS: error= 2.05D-07 at cycle   6 NSaved=   6.
 NSaved= 6 IEnMin= 6 EnMin= -698.334098458253     IErMin= 6 ErrMin= 2.05D-07
 ErrMax= 2.05D-07  0.00D+00 EMaxC= 1.00D-01 BMatC= 2.21D-11 BMatP= 6.58D-10
 IDIUse=1 WtCom= 1.00D+00 WtEn= 0.00D+00
 Coeff-Com: -0.841D-04 0.399D-01 0.928D-01 0.112D+00 0.211D+00 0.544D+00
 Coeff:     -0.841D-04 0.399D-01 0.928D-01 0.112D+00 0.211D+00 0.544D+00
 Gap=     0.160 Goal=   None    Shift=    0.000
 RMSDP=1.90D-08 MaxDP=6.25D-07 DE=-4.85D-10 OVMax= 7.37D-07

 Cycle  16  Pass 1  IDiag  1:
 RMSU=  9.37D-09    CP:  1.00D+00  8.95D-01  6.62D-01  4.67D-01  4.24D-01
                    CP:  5.80D-01
 E= -698.334098458283     Delta-E=       -0.000000000030 Rises=F Damp=F
 DIIS: error= 4.58D-08 at cycle   7 NSaved=   7.
 NSaved= 7 IEnMin= 7 EnMin= -698.334098458283     IErMin= 7 ErrMin= 4.58D-08
 ErrMax= 4.58D-08  0.00D+00 EMaxC= 1.00D-01 BMatC= 1.38D-12 BMatP= 2.21D-11
 IDIUse=1 WtCom= 1.00D+00 WtEn= 0.00D+00
 Coeff-Com: -0.762D-04 0.190D-01 0.447D-01 0.540D-01 0.107D+00 0.318D+00
 Coeff-Com:  0.457D+00
 Coeff:     -0.762D-04 0.190D-01 0.447D-01 0.540D-01 0.107D+00 0.318D+00
 Coeff:      0.457D+00
 Gap=     0.160 Goal=   None    Shift=    0.000
 RMSDP=4.49D-09 MaxDP=1.89D-07 DE=-2.98D-11 OVMax= 2.22D-07

 SCF Done:  E(RB-LYP) =  -698.334098458     A.U. after   16 cycles
            NFock= 16  Conv=0.45D-08     -V/T= 2.0098
 KE= 6.915597605933D+02 PE=-3.878864689769D+03 EE= 1.361879353541D+03
 Leave Link  502 at Sat Jan 21 11:03:45 2023, MaxMem=   131072000 cpu:             294.7 elap:              37.1
 (Enter /dragofs/sw/campus/0.2/software/gaussian/16.gaussian/gaussian/g16_legacy/l801.exe)
 DoSCS=F DFT=T ScalE2(SS,OS)=  1.000000  1.000000
 Range of M.O.s used for correlation:     1   277
 NBasis=   277 NAE=    61 NBE=    61 NFC=     0 NFV=     0
 NROrb=    277 NOA=    61 NOB=    61 NVA=   216 NVB=   216
 Leave Link  801 at Sat Jan 21 11:03:45 2023, MaxMem=   131072000 cpu:               0.2 elap:               0.0
 (Enter /dragofs/sw/campus/0.2/software/gaussian/16.gaussian/gaussian/g16_legacy/l1101.exe)
 Using compressed storage, NAtomX=    41.
 Will process     42 centers per pass.
 R6Disp: Adding Grimme-D3 dispersion energy 1st derivatives to the gradient.
 Leave Link 1101 at Sat Jan 21 11:03:45 2023, MaxMem=   131072000 cpu:               2.0 elap:               0.3
 (Enter /dragofs/sw/campus/0.2/software/gaussian/16.gaussian/gaussian/g16_legacy/l1102.exe)
 Symmetrizing basis deriv contribution to polar:
 IMax=3 JMax=2 DiffMx= 0.00D+00
 Leave Link 1102 at Sat Jan 21 11:03:45 2023, MaxMem=   131072000 cpu:               0.3 elap:               0.1
 (Enter /dragofs/sw/campus/0.2/software/gaussian/16.gaussian/gaussian/g16_legacy/l1110.exe)
 Forming Gx(P) for the SCF density, NAtomX=    41.
 Integral derivatives from FoFJK, PRISM(SPDF).
 Do as many integral derivatives as possible in FoFJK.
 G2DrvN: MDV=     131068912.
 G2DrvN: will do    42 centers at a time, making    1 passes.
 Calling FoFCou, ICntrl=  3507 FMM=F I1Cent=   0 AccDes= 0.00D+00.
 FoFJK:  IHMeth= 1 ICntrl=    3507 DoSepK=F KAlg= 0 I1Cent=           0 FoldK=F
 IRaf=         0 NMat=       1 IRICut=       1 DoRegI=T DoRafI=F ISym2E= 0 IDoP0=0 IntGTp=1.
 FoFCou: FMM=F IPFlag=           0 FMFlag=      100000 FMFlg1=           0
         NFxFlg=           0 DoJE=F BraDBF=F KetDBF=F FulRan=T
         wScrn=  0.000000 ICntrl=      3507 IOpCl=  0 I1Cent=           0 NGrid=           0
         NMat0=    1 NMatS0=      1 NMatT0=    0 NMatD0=    1 NMtDS0=    0 NMtDT0=    0
 Symmetry not used in FoFCou.
 End of G2Drv F.D. properties file   721 does not exist.
 End of G2Drv F.D. properties file   722 does not exist.
 End of G2Drv F.D. properties file   788 does not exist.
 Leave Link 1110 at Sat Jan 21 11:06:44 2023, MaxMem=   131072000 cpu:            1424.5 elap:             179.0
 (Enter /dragofs/sw/campus/0.2/software/gaussian/16.gaussian/gaussian/g16_legacy/l1002.exe)
 Minotr:  Closed shell wavefunction.
          IDoAtm=11111111111111111111111111111111111111111
          Direct CPHF calculation.
          Differentiating once with respect to electric field.
                with respect to dipole field.
          Differentiating once with respect to nuclear coordinates.
          Requested convergence is 1.0D-08 RMS, and 1.0D-07 maximum.
          Secondary convergence is 1.0D-12 RMS, and 1.0D-12 maximum.
          NewPWx=T KeepS1=F KeepF1=F KeepIn=T MapXYZ=F SortEE=F KeepMc=T.
        12331 words used for storage of precomputed grid.
 Two-electron integrals replicated using symmetry.
          MDV=     131072000 using IRadAn=       1.
          Solving linear equations simultaneously, MaxMat=     384.
 FoF2E skips out because all densities are zero.
 CalDSu exits because no D1Ps are significant.
 FoFJK:  IHMeth= 1 ICntrl=     500 DoSepK=F KAlg= 0 I1Cent=           0 FoldK=F
 IRaf= 830000000 NMat=     123 IRICut=       1 DoRegI=T DoRafI=F ISym2E= 2 IDoP0=0 IntGTp=1.
 FoFCou: FMM=F IPFlag=           0 FMFlag=      100000 FMFlg1=           0
         NFxFlg=           0 DoJE=F BraDBF=F KetDBF=F FulRan=T
         wScrn=  0.000000 ICntrl=       500 IOpCl=  0 I1Cent=           0 NGrid=           0
         NMat0=  123 NMatS0=    123 NMatT0=    0 NMatD0=  123 NMtDS0=    0 NMtDT0=    0
 Integrals replicated using symmetry in FoFCou.
          There are   126 degrees of freedom in the 1st order CPHF.  IDoFFX=6 NUNeed=     3.
    123 vectors produced by pass  0 Test12= 1.32D-14 1.00D-09 XBig12= 1.29D+02 2.77D+00.
 AX will form   123 AO Fock derivatives at one time.
    123 vectors produced by pass  1 Test12= 1.32D-14 1.00D-09 XBig12= 2.52D+01 9.25D-01.
    123 vectors produced by pass  2 Test12= 1.32D-14 1.00D-09 XBig12= 9.13D-02 2.51D-02.
    123 vectors produced by pass  3 Test12= 1.32D-14 1.00D-09 XBig12= 3.30D-05 3.76D-04.
     80 vectors produced by pass  4 Test12= 1.32D-14 1.00D-09 XBig12= 1.72D-09 2.51D-06.
      3 vectors produced by pass  5 Test12= 1.32D-14 1.00D-09 XBig12= 1.08D-13 2.51D-08.
 InvSVY:  IOpt=1 It=  1 EMax= 2.49D-14
 Solved reduced A of dimension   575 with   126 vectors.
 FullF1:  Do perturbations      1 to       3.
 Isotropic polarizability for W=    0.000000      144.92 Bohr**3.
 End of Minotr F.D. properties file   721 does not exist.
 End of Minotr F.D. properties file   722 does not exist.
 End of Minotr F.D. properties file   788 does not exist.
 Leave Link 1002 at Sat Jan 21 11:09:29 2023, MaxMem=   131072000 cpu:            1311.3 elap:             164.7
 (Enter /dragofs/sw/campus/0.2/software/gaussian/16.gaussian/gaussian/g16_legacy/l601.exe)
 Copying SCF densities to generalized density rwf, IOpCl= 0 IROHF=0.

 **********************************************************************

            Population analysis using the SCF density.

 **********************************************************************

 Orbital symmetries:
       Occupied  (A) (A) (A) (A) (A) (A) (A) (A) (A) (A) (A) (A)
                 (A) (A) (A) (A) (A) (A) (A) (A) (A) (A) (A) (A)
                 (A) (A) (A) (A) (A) (A) (A) (A) (A) (A) (A) (A)
                 (A) (A) (A) (A) (A) (A) (A) (A) (A) (A) (A) (A)
                 (A) (A) (A) (A) (A) (A) (A) (A) (A) (A) (A) (A)
                 (A)
       Virtual   (A) (A) (A) (A) (A) (A) (A) (A) (A) (A) (A) (A)
                 (A) (A) (A) (A) (A) (A) (A) (A) (A) (A) (A) (A)
                 (A) (A) (A) (A) (A) (A) (A) (A) (A) (A) (A) (A)
                 (A) (A) (A) (A) (A) (A) (A) (A) (A) (A) (A) (A)
                 (A) (A) (A) (A) (A) (A) (A) (A) (A) (A) (A) (A)
                 (A) (A) (A) (A) (A) (A) (A) (A) (A) (A) (A) (A)
                 (A) (A) (A) (A) (A) (A) (A) (A) (A) (A) (A) (A)
                 (A) (A) (A) (A) (A) (A) (A) (A) (A) (A) (A) (A)
                 (A) (A) (A) (A) (A) (A) (A) (A) (A) (A) (A) (A)
                 (A) (A) (A) (A) (A) (A) (A) (A) (A) (A) (A) (A)
                 (A) (A) (A) (A) (A) (A) (A) (A) (A) (A) (A) (A)
                 (A) (A) (A) (A) (A) (A) (A) (A) (A) (A) (A) (A)
                 (A) (A) (A) (A) (A) (A) (A) (A) (A) (A) (A) (A)
                 (A) (A) (A) (A) (A) (A) (A) (A) (A) (A) (A) (A)
                 (A) (A) (A) (A) (A) (A) (A) (A) (A) (A) (A) (A)
                 (A) (A) (A) (A) (A) (A) (A) (A) (A) (A) (A) (A)
                 (A) (A) (A) (A) (A) (A) (A) (A) (A) (A) (A) (A)
                 (A) (A) (A) (A) (A) (A) (A) (A) (A) (A) (A) (A)
 The electronic state is 1-A.
 Alpha  occ. eigenvalues --  -18.84221 -18.79216 -18.76619 -10.05505  -9.98343
 Alpha  occ. eigenvalues --   -9.95361  -9.93276  -9.93222  -9.93201  -9.91992
 Alpha  occ. eigenvalues --   -9.91854  -9.90744  -9.90629  -9.90199  -9.90142
 Alpha  occ. eigenvalues --   -0.99173  -0.91462  -0.88669  -0.72864  -0.68816
 Alpha  occ. eigenvalues --   -0.67730  -0.66674  -0.65545  -0.61041  -0.58427
 Alpha  occ. eigenvalues --   -0.54172  -0.54056  -0.51850  -0.49414  -0.48753
 Alpha  occ. eigenvalues --   -0.44316  -0.43249  -0.42108  -0.40491  -0.38810
 Alpha  occ. eigenvalues --   -0.38682  -0.38362  -0.38183  -0.36471  -0.36169
 Alpha  occ. eigenvalues --   -0.35493  -0.34819  -0.34530  -0.34297  -0.33102
 Alpha  occ. eigenvalues --   -0.32780  -0.31668  -0.31377  -0.30065  -0.29770
 Alpha  occ. eigenvalues --   -0.29726  -0.29417  -0.28642  -0.28280  -0.27902
 Alpha  occ. eigenvalues --   -0.27625  -0.27242  -0.25044  -0.24569  -0.22358
 Alpha  occ. eigenvalues --   -0.18944
 Alpha virt. eigenvalues --   -0.02900   0.04405   0.06731   0.06931   0.08005
 Alpha virt. eigenvalues --    0.08745   0.09269   0.10214   0.10635   0.11534
 Alpha virt. eigenvalues --    0.11785   0.12445   0.12953   0.13285   0.13835
 Alpha virt. eigenvalues --    0.14114   0.14424   0.14686   0.15232   0.15695
 Alpha virt. eigenvalues --    0.15984   0.16789   0.17141   0.17812   0.18244
 Alpha virt. eigenvalues --    0.18536   0.18892   0.19665   0.20170   0.20335
 Alpha virt. eigenvalues --    0.21766   0.21925   0.22682   0.23266   0.23746
 Alpha virt. eigenvalues --    0.24417   0.25635   0.26488   0.27393   0.34265
 Alpha virt. eigenvalues --    0.43900   0.45370   0.45734   0.46907   0.47975
 Alpha virt. eigenvalues --    0.49306   0.50145   0.50673   0.52182   0.52778
 Alpha virt. eigenvalues --    0.53338   0.54211   0.54776   0.55057   0.56325
 Alpha virt. eigenvalues --    0.56715   0.57119   0.57456   0.58353   0.60175
 Alpha virt. eigenvalues --    0.60886   0.61227   0.63114   0.63415   0.65573
 Alpha virt. eigenvalues --    0.67055   0.67382   0.70532   0.71205   0.72728
 Alpha virt. eigenvalues --    0.74330   0.74394   0.74737   0.76175   0.77649
 Alpha virt. eigenvalues --    0.78516   0.80129   0.81066   0.81711   0.82338
 Alpha virt. eigenvalues --    0.83215   0.83755   0.84288   0.84816   0.85564
 Alpha virt. eigenvalues --    0.86274   0.87177   0.87493   0.88159   0.88942
 Alpha virt. eigenvalues --    0.89170   0.89309   0.89944   0.90547   0.91044
 Alpha virt. eigenvalues --    0.91861   0.92838   0.93713   0.94224   0.95075
 Alpha virt. eigenvalues --    0.96799   0.98046   0.98535   1.00087   1.01483
 Alpha virt. eigenvalues --    1.03034   1.06561   1.07690   1.11311   1.12282
 Alpha virt. eigenvalues --    1.16460   1.17845   1.19090   1.23396   1.26058
 Alpha virt. eigenvalues --    1.28778   1.29742   1.30367   1.33966   1.35870
 Alpha virt. eigenvalues --    1.37755   1.39222   1.42148   1.43574   1.46541
 Alpha virt. eigenvalues --    1.50512   1.51948   1.53411   1.55532   1.58800
 Alpha virt. eigenvalues --    1.61936   1.62681   1.63680   1.66545   1.68236
 Alpha virt. eigenvalues --    1.68657   1.70024   1.71941   1.72858   1.73871
 Alpha virt. eigenvalues --    1.75791   1.77757   1.79263   1.81356   1.81645
 Alpha virt. eigenvalues --    1.83476   1.83846   1.85786   1.86913   1.88723
 Alpha virt. eigenvalues --    1.90355   1.90637   1.91170   1.91315   1.92438
 Alpha virt. eigenvalues --    1.94069   1.94173   1.95611   1.95803   1.97586
 Alpha virt. eigenvalues --    2.00672   2.02226   2.03458   2.09164   2.11055
 Alpha virt. eigenvalues --    2.13039   2.14396   2.15517   2.17452   2.18688
 Alpha virt. eigenvalues --    2.20212   2.21457   2.22840   2.23424   2.25043
 Alpha virt. eigenvalues --    2.25249   2.27114   2.28314   2.30323   2.33498
 Alpha virt. eigenvalues --    2.33821   2.34361   2.35486   2.40451   2.40656
 Alpha virt. eigenvalues --    2.45909   2.48610   2.49843   2.52143   2.54621
 Alpha virt. eigenvalues --    2.55117   2.62066   2.64988   2.66366   2.70079
 Alpha virt. eigenvalues --    2.72215   2.73674   2.86161   2.89365   2.95218
 Alpha virt. eigenvalues --    3.01250   3.76934   3.92608   4.00911   4.04010
 Alpha virt. eigenvalues --    4.07709   4.11636   4.13588   4.16034   4.26957
 Alpha virt. eigenvalues --    4.29728   4.32823   4.34680   4.37985   4.51008
 Alpha virt. eigenvalues --    4.51753
          Condensed to atoms (all electrons):
               1          2          3          4          5          6
     1  H    0.565281   0.372884  -0.031235  -0.031302  -0.033755   0.005393
     2  C    0.372884   5.048775   0.371863   0.359813   0.366770  -0.036782
     3  C   -0.031235   0.371863   4.990865  -0.025053  -0.035011   0.352357
     4  H   -0.031302   0.359813  -0.025053   0.611116  -0.033697  -0.003185
     5  H   -0.033755   0.366770  -0.035011  -0.033697   0.615718  -0.004126
     6  H    0.005393  -0.036782   0.352357  -0.003185  -0.004126   0.646016
     7  H   -0.004258  -0.037956   0.354389  -0.002490   0.005531  -0.037851
     8  C   -0.007585  -0.029628   0.382164   0.003849  -0.004412  -0.034037
     9  C    0.000251   0.004640  -0.041912  -0.000101  -0.000005  -0.000463
    10  H    0.000066  -0.008106  -0.051873  -0.000033   0.006435  -0.001377
    11  H   -0.000008  -0.000157  -0.000977  -0.000006   0.000011   0.003525
    12  H    0.000006   0.000001  -0.008243   0.000001   0.000014  -0.000071
    13  O    0.009477  -0.002097  -0.052016   0.000152  -0.000594   0.003407
    14  H   -0.000565  -0.000025   0.006756   0.000006  -0.000067  -0.000289
    15  C    0.000000  -0.000147   0.004052   0.000001  -0.000000   0.000030
    16  H   -0.000002  -0.000003   0.000132  -0.000000   0.000000  -0.000001
    17  H    0.000000   0.000000   0.000068   0.000000  -0.000001  -0.000001
    18  H    0.000000   0.000001  -0.000106  -0.000000   0.000000  -0.000003
    19  H   -0.000000  -0.000000  -0.000000  -0.000000  -0.000000   0.000000
    20  C   -0.000000  -0.000000  -0.000000   0.000000  -0.000000  -0.000000
    21  C    0.000000   0.000000   0.000000  -0.000000   0.000000   0.000000
    22  H   -0.000000   0.000000  -0.000000   0.000000   0.000000  -0.000000
    23  H   -0.000000   0.000000  -0.000000   0.000000  -0.000000  -0.000000
    24  H   -0.000000  -0.000000   0.000000  -0.000000   0.000000   0.000000
    25  H    0.000000  -0.000000   0.000000   0.000000  -0.000000   0.000000
    26  C    0.000000   0.000000  -0.000000  -0.000000   0.000000   0.000000
    27  C   -0.000000   0.000000   0.000000  -0.000000  -0.000000   0.000000
    28  H   -0.000000   0.000000   0.000001  -0.000000  -0.000000  -0.000000
    29  H   -0.000000  -0.000000   0.000000   0.000000   0.000000  -0.000000
    30  H   -0.000000   0.000000  -0.000000   0.000000  -0.000000   0.000000
    31  O    0.000000   0.000001  -0.000003   0.000000  -0.000003   0.000000
    32  C    0.000046   0.000005  -0.000080  -0.000000  -0.000015   0.000005
    33  O    0.000002  -0.000007   0.000068  -0.000000  -0.000003   0.000001
    34  C   -0.000907  -0.000838   0.000226   0.000025   0.000541  -0.000014
    35  H   -0.000003  -0.000042  -0.000015   0.000001   0.000452  -0.000000
    36  H    0.003987   0.002001  -0.001707  -0.000026   0.000328   0.000036
    37  H    0.000010   0.000021   0.000000  -0.000001   0.000011   0.000000
    38  C    0.000000  -0.000012   0.000012   0.000000  -0.000026   0.000017
    39  H    0.000000  -0.000000  -0.000002  -0.000000   0.000000   0.000000
    40  H   -0.000001  -0.000005   0.000015  -0.000001   0.000349   0.000021
    41  H   -0.000000   0.000000  -0.000002  -0.000000  -0.000004   0.000001
               7          8          9         10         11         12
     1  H   -0.004258  -0.007585   0.000251   0.000066  -0.000008   0.000006
     2  C   -0.037956  -0.029628   0.004640  -0.008106  -0.000157   0.000001
     3  C    0.354389   0.382164  -0.041912  -0.051873  -0.000977  -0.008243
     4  H   -0.002490   0.003849  -0.000101  -0.000033  -0.000006   0.000001
     5  H    0.005531  -0.004412  -0.000005   0.006435   0.000011   0.000014
     6  H   -0.037851  -0.034037  -0.000463  -0.001377   0.003525  -0.000071
     7  H    0.625728  -0.030937  -0.008804   0.007326   0.000207   0.007254
     8  C   -0.030937   4.754809   0.368074   0.336807  -0.027244  -0.033284
     9  C   -0.008804   0.368074   5.052180  -0.066040   0.328201   0.354512
    10  H    0.007326   0.336807  -0.066040   0.720962   0.000589   0.007257
    11  H    0.000207  -0.027244   0.328201   0.000589   0.664314  -0.037145
    12  H    0.007254  -0.033284   0.354512   0.007257  -0.037145   0.630747
    13  O    0.000060   0.242479  -0.048540  -0.042473   0.003754   0.000860
    14  H   -0.000108  -0.024051  -0.003598  -0.005416  -0.000047  -0.000324
    15  C   -0.000038  -0.027944   0.369112  -0.006323  -0.036624  -0.038507
    16  H    0.000025  -0.007012  -0.033622   0.000663   0.006205  -0.003889
    17  H    0.000009  -0.004079  -0.035388   0.005101  -0.004396   0.005357
    18  H    0.000001   0.003895  -0.024156  -0.000008  -0.003156  -0.002547
    19  H    0.000000   0.000000  -0.000000   0.000000  -0.000000   0.000000
    20  C    0.000000  -0.000000  -0.000000   0.000000   0.000000   0.000000
    21  C    0.000000  -0.000000  -0.000000   0.000004  -0.000000   0.000000
    22  H    0.000000   0.000000   0.000000  -0.000000  -0.000000   0.000000
    23  H    0.000000   0.000000   0.000000  -0.000000   0.000000  -0.000000
    24  H    0.000000   0.000000  -0.000000   0.000000  -0.000000   0.000000
    25  H   -0.000000  -0.000000   0.000000  -0.000000   0.000000  -0.000000
    26  C    0.000000  -0.000008   0.000014   0.000070  -0.000001  -0.000000
    27  C    0.000000   0.000042  -0.000002  -0.000189   0.000002  -0.000000
    28  H   -0.000000   0.000019  -0.000049   0.000002   0.000001   0.000001
    29  H   -0.000000  -0.000001   0.000000   0.000002  -0.000000  -0.000000
    30  H   -0.000000  -0.000001   0.000000   0.000001   0.000000   0.000000
    31  O   -0.000000  -0.000142   0.000011  -0.000357   0.000000   0.000000
    32  C   -0.000000   0.001698  -0.000032   0.003945  -0.000011   0.000001
    33  O   -0.000001   0.000811  -0.000908   0.001465  -0.000008  -0.000009
    34  C    0.000004  -0.000594  -0.000079   0.001037   0.000004  -0.000000
    35  H    0.000000   0.000023   0.000003  -0.000120  -0.000000   0.000000
    36  H   -0.000033   0.001251   0.000361  -0.002811  -0.000015  -0.000004
    37  H    0.000000   0.000016  -0.000001   0.000053  -0.000000   0.000000
    38  C   -0.000001  -0.001011   0.000099   0.001322   0.000096  -0.000001
    39  H    0.000000   0.000049  -0.000012  -0.000030   0.000002   0.000000
    40  H    0.000002  -0.000803  -0.000046   0.005654   0.000019   0.000002
    41  H   -0.000000  -0.000414   0.000334   0.000836   0.000729   0.000001
              13         14         15         16         17         18
     1  H    0.009477  -0.000565   0.000000  -0.000002   0.000000   0.000000
     2  C   -0.002097  -0.000025  -0.000147  -0.000003   0.000000   0.000001
     3  C   -0.052016   0.006756   0.004052   0.000132   0.000068  -0.000106
     4  H    0.000152   0.000006   0.000001  -0.000000   0.000000  -0.000000
     5  H   -0.000594  -0.000067  -0.000000   0.000000  -0.000001   0.000000
     6  H    0.003407  -0.000289   0.000030  -0.000001  -0.000001  -0.000003
     7  H    0.000060  -0.000108  -0.000038   0.000025   0.000009   0.000001
     8  C    0.242479  -0.024051  -0.027944  -0.007012  -0.004079   0.003895
     9  C   -0.048540  -0.003598   0.369112  -0.033622  -0.035388  -0.024156
    10  H   -0.042473  -0.005416  -0.006323   0.000663   0.005101  -0.000008
    11  H    0.003754  -0.000047  -0.036624   0.006205  -0.004396  -0.003156
    12  H    0.000860  -0.000324  -0.038507  -0.003889   0.005357  -0.002547
    13  O    8.297515   0.201351  -0.003882   0.008995  -0.000383   0.000154
    14  H    0.201351   0.374820   0.003329   0.003019  -0.000452  -0.000082
    15  C   -0.003882   0.003329   5.081547   0.363862   0.366184   0.356194
    16  H    0.008995   0.003019   0.363862   0.585834  -0.032510  -0.031262
    17  H   -0.000383  -0.000452   0.366184  -0.032510   0.579928  -0.031529
    18  H    0.000154  -0.000082   0.356194  -0.031262  -0.031529   0.611927
    19  H    0.000000   0.000001  -0.000000  -0.000000   0.000000   0.000000
    20  C    0.000000   0.000001   0.000000  -0.000000  -0.000002   0.000000
    21  C   -0.000000  -0.000000   0.000004  -0.000000  -0.000000  -0.000000
    22  H    0.000000  -0.000000   0.000000   0.000000   0.000000  -0.000000
    23  H    0.000000  -0.000001  -0.000001   0.000001   0.000000   0.000000
    24  H   -0.000000  -0.000000  -0.000000  -0.000000   0.000002   0.000000
    25  H   -0.000000   0.000000  -0.000000   0.000000   0.000000   0.000000
    26  C   -0.000002   0.000038  -0.000263  -0.000003  -0.000486   0.000002
    27  C    0.000000  -0.000001  -0.000001  -0.000000  -0.000058   0.000001
    28  H    0.000010  -0.000115  -0.000011   0.000013   0.004309  -0.000005
    29  H    0.000000  -0.000000  -0.000000  -0.000000  -0.000003  -0.000000
    30  H    0.000000   0.000000  -0.000001   0.000000   0.000002   0.000000
    31  O   -0.000001   0.000456   0.000010  -0.000000  -0.000129  -0.000000
    32  C    0.002539  -0.002605   0.000205  -0.000172   0.000356  -0.000002
    33  O   -0.013039   0.046925  -0.000292   0.000307   0.003156   0.000095
    34  C   -0.009142  -0.000444  -0.000001   0.000020   0.000036   0.000000
    35  H    0.000086   0.000102  -0.000000  -0.000000  -0.000002  -0.000000
    36  H    0.026791  -0.002040  -0.000011  -0.000045  -0.000006  -0.000000
    37  H    0.000045   0.000043   0.000000  -0.000000   0.000000   0.000000
    38  C    0.000006   0.000010  -0.000923   0.000020  -0.000230   0.000012
    39  H   -0.000000  -0.000000   0.000018  -0.000000  -0.000011  -0.000000
    40  H   -0.000001  -0.000021  -0.000012   0.000001  -0.000005  -0.000001
    41  H    0.000005   0.000001   0.000676  -0.000030   0.005289  -0.000035
              19         20         21         22         23         24
     1  H   -0.000000  -0.000000   0.000000  -0.000000  -0.000000  -0.000000
     2  C   -0.000000  -0.000000   0.000000   0.000000   0.000000  -0.000000
     3  C   -0.000000  -0.000000   0.000000  -0.000000  -0.000000   0.000000
     4  H   -0.000000   0.000000  -0.000000   0.000000   0.000000  -0.000000
     5  H   -0.000000  -0.000000   0.000000   0.000000  -0.000000   0.000000
     6  H    0.000000  -0.000000   0.000000  -0.000000  -0.000000   0.000000
     7  H    0.000000   0.000000   0.000000   0.000000   0.000000   0.000000
     8  C    0.000000  -0.000000  -0.000000   0.000000   0.000000   0.000000
     9  C   -0.000000  -0.000000  -0.000000   0.000000   0.000000  -0.000000
    10  H    0.000000   0.000000   0.000004  -0.000000  -0.000000   0.000000
    11  H   -0.000000   0.000000  -0.000000  -0.000000   0.000000  -0.000000
    12  H    0.000000   0.000000   0.000000   0.000000  -0.000000   0.000000
    13  O    0.000000   0.000000  -0.000000   0.000000   0.000000  -0.000000
    14  H    0.000001   0.000001  -0.000000  -0.000000  -0.000001  -0.000000
    15  C   -0.000000   0.000000   0.000004   0.000000  -0.000001  -0.000000
    16  H   -0.000000  -0.000000  -0.000000   0.000000   0.000001  -0.000000
    17  H    0.000000  -0.000002  -0.000000   0.000000   0.000000   0.000002
    18  H    0.000000   0.000000  -0.000000  -0.000000   0.000000   0.000000
    19  H    0.585456   0.371508  -0.031998  -0.031819  -0.032481   0.005386
    20  C    0.371508   5.038002   0.373242   0.362369   0.373802  -0.033503
    21  C   -0.031998   0.373242   4.984323  -0.024823  -0.033307   0.351976
    22  H   -0.031819   0.362369  -0.024823   0.594948  -0.030227  -0.003619
    23  H   -0.032481   0.373802  -0.033307  -0.030227   0.572376  -0.003719
    24  H    0.005386  -0.033503   0.351976  -0.003619  -0.003719   0.625150
    25  H   -0.004425  -0.038279   0.359354  -0.002142   0.005011  -0.036847
    26  C   -0.008104  -0.031374   0.378689   0.003926  -0.004303  -0.033538
    27  C    0.000138   0.003972  -0.039200  -0.000114   0.000042  -0.000651
    28  H    0.000025  -0.004888  -0.046492   0.000033   0.005301  -0.001041
    29  H   -0.000002   0.000003  -0.000731  -0.000001   0.000006   0.003023
    30  H    0.000010  -0.000038  -0.006867   0.000001   0.000008  -0.000069
    31  O    0.006718  -0.003573  -0.039214   0.000069  -0.000744   0.003198
    32  C    0.002521   0.002995  -0.002045  -0.000004   0.000443   0.000008
    33  O   -0.000802   0.000083  -0.000442   0.000039   0.001703  -0.000010
    34  C    0.000251  -0.000168  -0.000430   0.000003   0.000037   0.000008
    35  H    0.000008  -0.000004   0.000008  -0.000000  -0.000001  -0.000000
    36  H    0.000008   0.000002  -0.000004   0.000000   0.000000   0.000000
    37  H    0.000134   0.000016   0.000048  -0.000001  -0.000006  -0.000000
    38  C    0.000001  -0.000141   0.003922   0.000001   0.000001  -0.000024
    39  H    0.000000   0.000001  -0.000114  -0.000000   0.000000  -0.000002
    40  H   -0.000001   0.000001   0.000195   0.000000   0.000000  -0.000005
    41  H    0.000000  -0.000000   0.000054   0.000000  -0.000001  -0.000002
              25         26         27         28         29         30
     1  H    0.000000   0.000000  -0.000000  -0.000000  -0.000000  -0.000000
     2  C   -0.000000   0.000000   0.000000   0.000000  -0.000000   0.000000
     3  C    0.000000  -0.000000   0.000000   0.000001   0.000000  -0.000000
     4  H    0.000000  -0.000000  -0.000000  -0.000000   0.000000   0.000000
     5  H   -0.000000   0.000000  -0.000000  -0.000000   0.000000  -0.000000
     6  H    0.000000   0.000000   0.000000  -0.000000  -0.000000   0.000000
     7  H   -0.000000   0.000000   0.000000  -0.000000  -0.000000  -0.000000
     8  C   -0.000000  -0.000008   0.000042   0.000019  -0.000001  -0.000001
     9  C    0.000000   0.000014  -0.000002  -0.000049   0.000000   0.000000
    10  H   -0.000000   0.000070  -0.000189   0.000002   0.000002   0.000001
    11  H    0.000000  -0.000001   0.000002   0.000001  -0.000000   0.000000
    12  H   -0.000000  -0.000000  -0.000000   0.000001  -0.000000   0.000000
    13  O   -0.000000  -0.000002   0.000000   0.000010   0.000000   0.000000
    14  H    0.000000   0.000038  -0.000001  -0.000115  -0.000000   0.000000
    15  C   -0.000000  -0.000263  -0.000001  -0.000011  -0.000000  -0.000001
    16  H    0.000000  -0.000003  -0.000000   0.000013  -0.000000   0.000000
    17  H    0.000000  -0.000486  -0.000058   0.004309  -0.000003   0.000002
    18  H    0.000000   0.000002   0.000001  -0.000005  -0.000000   0.000000
    19  H   -0.004425  -0.008104   0.000138   0.000025  -0.000002   0.000010
    20  C   -0.038279  -0.031374   0.003972  -0.004888   0.000003  -0.000038
    21  C    0.359354   0.378689  -0.039200  -0.046492  -0.000731  -0.006867
    22  H   -0.002142   0.003926  -0.000114   0.000033  -0.000001   0.000001
    23  H    0.005011  -0.004303   0.000042   0.005301   0.000006   0.000008
    24  H   -0.036847  -0.033538  -0.000651  -0.001041   0.003023  -0.000069
    25  H    0.620810  -0.033733  -0.007277   0.005789  -0.000079   0.006706
    26  C   -0.033733   4.841913   0.378171   0.349072  -0.034117  -0.031718
    27  C   -0.007277   0.378171   4.993067  -0.046748   0.353299   0.357160
    28  H    0.005789   0.349072  -0.046748   0.598104  -0.000800   0.005733
    29  H   -0.000079  -0.034117   0.353299  -0.000800   0.623344  -0.036516
    30  H    0.006706  -0.031718   0.357160   0.005733  -0.036516   0.618170
    31  O   -0.000825   0.166292  -0.043534  -0.036568   0.003189  -0.001048
    32  C   -0.000249  -0.006378   0.001302  -0.006238  -0.000027  -0.000233
    33  O   -0.000016  -0.010101   0.000592   0.021461   0.000006  -0.000008
    34  C   -0.000013   0.006064  -0.000287   0.001078   0.000008  -0.000022
    35  H    0.000012  -0.000364  -0.000017  -0.000021   0.000000   0.000028
    36  H    0.000000  -0.000153   0.000019   0.000022  -0.000000   0.000001
    37  H   -0.000000  -0.000163  -0.000005  -0.000015   0.000000  -0.000000
    38  C   -0.000004  -0.031309   0.368002  -0.005084  -0.033348  -0.037270
    39  H    0.000002   0.003713  -0.023236   0.000041  -0.002932  -0.002621
    40  H    0.000006  -0.008240  -0.032740   0.000025   0.005269  -0.004127
    41  H    0.000008  -0.003674  -0.033908   0.003851  -0.004222   0.005013
              31         32         33         34         35         36
     1  H    0.000000   0.000046   0.000002  -0.000907  -0.000003   0.003987
     2  C    0.000001   0.000005  -0.000007  -0.000838  -0.000042   0.002001
     3  C   -0.000003  -0.000080   0.000068   0.000226  -0.000015  -0.001707
     4  H    0.000000  -0.000000  -0.000000   0.000025   0.000001  -0.000026
     5  H   -0.000003  -0.000015  -0.000003   0.000541   0.000452   0.000328
     6  H    0.000000   0.000005   0.000001  -0.000014  -0.000000   0.000036
     7  H   -0.000000  -0.000000  -0.000001   0.000004   0.000000  -0.000033
     8  C   -0.000142   0.001698   0.000811  -0.000594   0.000023   0.001251
     9  C    0.000011  -0.000032  -0.000908  -0.000079   0.000003   0.000361
    10  H   -0.000357   0.003945   0.001465   0.001037  -0.000120  -0.002811
    11  H    0.000000  -0.000011  -0.000008   0.000004  -0.000000  -0.000015
    12  H    0.000000   0.000001  -0.000009  -0.000000   0.000000  -0.000004
    13  O   -0.000001   0.002539  -0.013039  -0.009142   0.000086   0.026791
    14  H    0.000456  -0.002605   0.046925  -0.000444   0.000102  -0.002040
    15  C    0.000010   0.000205  -0.000292  -0.000001  -0.000000  -0.000011
    16  H   -0.000000  -0.000172   0.000307   0.000020  -0.000000  -0.000045
    17  H   -0.000129   0.000356   0.003156   0.000036  -0.000002  -0.000006
    18  H   -0.000000  -0.000002   0.000095   0.000000  -0.000000  -0.000000
    19  H    0.006718   0.002521  -0.000802   0.000251   0.000008   0.000008
    20  C   -0.003573   0.002995   0.000083  -0.000168  -0.000004   0.000002
    21  C   -0.039214  -0.002045  -0.000442  -0.000430   0.000008  -0.000004
    22  H    0.000069  -0.000004   0.000039   0.000003  -0.000000   0.000000
    23  H   -0.000744   0.000443   0.001703   0.000037  -0.000001   0.000000
    24  H    0.003198   0.000008  -0.000010   0.000008  -0.000000   0.000000
    25  H   -0.000825  -0.000249  -0.000016  -0.000013   0.000012   0.000000
    26  C    0.166292  -0.006378  -0.010101   0.006064  -0.000364  -0.000153
    27  C   -0.043534   0.001302   0.000592  -0.000287  -0.000017   0.000019
    28  H   -0.036568  -0.006238   0.021461   0.001078  -0.000021   0.000022
    29  H    0.003189  -0.000027   0.000006   0.000008   0.000000  -0.000000
    30  H   -0.001048  -0.000233  -0.000008  -0.000022   0.000028   0.000001
    31  O    8.247763   0.258345  -0.064189  -0.088321   0.007090   0.002024
    32  C    0.258345   4.391680   0.457132   0.358356  -0.019779  -0.020978
    33  O   -0.064189   0.457132   8.094626  -0.071020   0.003057  -0.002309
    34  C   -0.088321   0.358356  -0.071020   5.304122   0.336660   0.328063
    35  H    0.007090  -0.019779   0.003057   0.336660   0.560237  -0.020990
    36  H    0.002024  -0.020978  -0.002309   0.328063  -0.020990   0.505423
    37  H    0.000692  -0.020339  -0.000410   0.351758  -0.024683  -0.019995
    38  C   -0.003436   0.001152   0.000021  -0.000058  -0.000017   0.000000
    39  H    0.000135  -0.000012   0.000000   0.000000  -0.000001  -0.000000
    40  H    0.008872   0.000376  -0.000216   0.000165   0.000249  -0.000064
    41  H   -0.000183  -0.000079  -0.000152  -0.000017   0.000003  -0.000001
              37         38         39         40         41
     1  H    0.000010   0.000000   0.000000  -0.000001  -0.000000
     2  C    0.000021  -0.000012  -0.000000  -0.000005   0.000000
     3  C    0.000000   0.000012  -0.000002   0.000015  -0.000002
     4  H   -0.000001   0.000000  -0.000000  -0.000001  -0.000000
     5  H    0.000011  -0.000026   0.000000   0.000349  -0.000004
     6  H    0.000000   0.000017   0.000000   0.000021   0.000001
     7  H    0.000000  -0.000001   0.000000   0.000002  -0.000000
     8  C    0.000016  -0.001011   0.000049  -0.000803  -0.000414
     9  C   -0.000001   0.000099  -0.000012  -0.000046   0.000334
    10  H    0.000053   0.001322  -0.000030   0.005654   0.000836
    11  H   -0.000000   0.000096   0.000002   0.000019   0.000729
    12  H    0.000000  -0.000001   0.000000   0.000002   0.000001
    13  O    0.000045   0.000006  -0.000000  -0.000001   0.000005
    14  H    0.000043   0.000010  -0.000000  -0.000021   0.000001
    15  C    0.000000  -0.000923   0.000018  -0.000012   0.000676
    16  H   -0.000000   0.000020  -0.000000   0.000001  -0.000030
    17  H    0.000000  -0.000230  -0.000011  -0.000005   0.005289
    18  H    0.000000   0.000012  -0.000000  -0.000001  -0.000035
    19  H    0.000134   0.000001   0.000000  -0.000001   0.000000
    20  C    0.000016  -0.000141   0.000001   0.000001  -0.000000
    21  C    0.000048   0.003922  -0.000114   0.000195   0.000054
    22  H   -0.000001   0.000001  -0.000000   0.000000   0.000000
    23  H   -0.000006   0.000001   0.000000   0.000000  -0.000001
    24  H   -0.000000  -0.000024  -0.000002  -0.000005  -0.000002
    25  H   -0.000000  -0.000004   0.000002   0.000006   0.000008
    26  C   -0.000163  -0.031309   0.003713  -0.008240  -0.003674
    27  C   -0.000005   0.368002  -0.023236  -0.032740  -0.033908
    28  H   -0.000015  -0.005084   0.000041   0.000025   0.003851
    29  H    0.000000  -0.033348  -0.002932   0.005269  -0.004222
[...]
 01013541,0.00600054,0.02032886,0.00029981,-0.00046333,0.00004340,-0.01
 929398,0.05625027,-0.00001210,-0.00000359,-0.00001330,-0.00009294,0.00
 003648,-0.00005903,0.00003210,0.00000777,0.00002582,0.00004228,-0.0000
 1270,0.00000246,0.00003793,-0.00002417,0.00006341,-0.00000376,-0.00000
 823,-0.00000651,0.00001718,-0.00002009,-0.00000281,-0.00009344,0.00005
 735,-0.00008006,0.00002015,0.00000589,0.00000214,0.00005461,-0.0000182
 7,0.00001210,-0.00000536,-0.00000448,0.00000253,0.00000189,-0.00001039
 ,0.00000183,-0.00000246,-0.00009937,0.00005203,0.00011298,0.00008719,-
 0.00002574,0.00001640,0.00000924,0.00000203,0.00000882,-0.00000270,0.0
 0001173,-0.00001140,-0.00000672,-0.00002102,-0.00001287,-0.00000582,0.
 00000292,0.00001036,0.00004389,0.00005343,-0.00008560,-0.00015399,-0.0
 0014608,0.00005293,-0.00023047,-0.00013824,0.00000996,0.00003691,0.000
 03891,0.00000913,0.00002891,0.00001494,-0.00009516,0.00000320,0.000072
 78,-0.00001096,0.00000774,-0.00000558,-0.00052008,0.00011342,0.0003738
 5,0.00002180,0.00004414,0.00004857,-0.00000492,-0.00004675,-0.00000878
 ,-0.00001132,-0.00002084,-0.00000650,0.00000809,0.00001007,-0.00000278
 ,-0.00032430,-0.00165539,0.00005575,0.00231904,-0.00292373,-0.00927152
 ,-0.00091368,0.00126021,0.00069162,0.08971904,-0.04298269,-0.25265414,
 0.00782924,-0.00454913,-0.01625499,-0.00099456,0.00113881,0.00309451,-
 0.09711747,0.04986674,0.27404823,0.00002129,-0.00000487,0.00001109,-0.
 00003359,0.00005579,-0.00005307,-0.00002101,0.00009018,0.00011528,0.00
 002040,0.00001265,0.00001468,0.00001172,-0.00003940,0.00000682,0.00002
 941,-0.00000987,-0.00001671,0.00000385,-0.00001473,-0.00001202,0.00039
 949,-0.00021844,-0.00002078,-0.00008928,-0.00013651,0.00020026,-0.0007
 2726,0.00005444,-0.00047213,-0.00001522,-0.00001940,-0.00002692,0.0000
 7402,0.00005774,0.00000046,-0.00014477,0.00013747,-0.00005356,0.000150
 12,-0.00009855,-0.00003800,-0.00032599,0.00002179,0.00022691,0.0002246
 7,-0.00005359,0.00013168,0.00025071,0.00007844,-0.00042972,0.00004206,
 -0.00000088,-0.00000659,-0.00003365,-0.00006739,-0.00000693,0.00064949
 ,0.00007005,-0.00031269,0.00021188,0.00012336,-0.00141142,0.00007279,0
 .00001103,-0.00025685,-0.00003013,0.00001418,0.00004417,-0.00003058,-0
 .00002703,-0.00015484,0.00007696,-0.00014899,0.00003221,-0.00224710,0.
 00117352,0.01000634,-0.16609420,-0.00911350,0.02506753,0.00102381,-0.0
 0000837,-0.00115813,-0.01395055,-0.00104483,0.00484086,-0.01824065,-0.
 00266592,0.00608004,-0.00172087,-0.00133753,-0.00055684,0.00141908,-0.
 00060324,0.00035233,-0.00071199,0.00054774,-0.00018012,-0.00032846,0.0
 0007041,-0.00010145,0.00006032,-0.00006470,-0.00004070,-0.00003541,-0.
 00009147,-0.00005765,-0.00000292,-0.00002856,0.00002425,0.45206803,0.0
 0004657,-0.00001020,0.00002018,-0.00028252,0.00009166,-0.00008896,0.00
 006291,-0.00010419,-0.00001023,0.00007478,-0.00003413,0.00002108,0.000
 12498,-0.00012971,0.00003857,-0.00002427,0.00003555,-0.00001133,0.0000
 9122,-0.00000860,0.00001017,-0.00071999,0.00048856,-0.00021494,0.00024
 253,0.00019730,0.00034127,0.00018466,0.00016177,-0.00010871,0.00023973
 ,-0.00004819,-0.00022138,-0.00006414,-0.00018701,-0.00008961,0.0002587
 8,-0.00044191,0.00019298,-0.00011808,0.00021592,-0.00002412,0.00051245
 ,-0.00011901,-0.00031173,-0.00025674,0.00012077,-0.00017628,-0.0004580
 6,-0.00014275,0.00044471,-0.00012310,-0.00000264,-0.00000442,-0.000010
 46,-0.00004760,0.00008716,-0.00019230,0.00059919,0.00002118,0.00030852
 ,-0.00025456,0.00041838,-0.00001033,-0.00001522,0.00001809,0.00002560,
 -0.00000535,-0.00009471,0.00035986,0.00033062,-0.00001623,-0.00036466,
 0.00027811,-0.00001263,-0.00214641,-0.00057217,0.00151094,-0.00879110,
 -0.07777383,0.00310898,-0.00093166,-0.00000027,0.00052103,-0.02595130,
 -0.00176442,0.00976271,0.02401006,0.00382520,-0.00869489,0.00011471,-0
 .00030410,0.00064571,-0.00060498,0.00109681,-0.00151972,0.00023920,-0.
 00077780,-0.00011654,-0.00011966,-0.00002712,0.00012578,0.00007529,-0.
 00014713,-0.00006011,-0.00005173,0.00001731,-0.00006355,0.00000388,-0.
 00001500,0.00006032,-0.01074676,0.54594219,0.00003952,0.00001064,0.000
 03114,-0.00012104,0.00004471,-0.00002987,-0.00008098,0.00006793,-0.000
 10374,0.00003286,0.00000154,0.00001326,0.00006338,-0.00007587,-0.00001
 037,-0.00005818,-0.00000055,0.00005372,-0.00000267,-0.00002852,0.00003
 723,0.00031213,-0.00025680,0.00009015,0.00004332,-0.00002539,-0.000216
 56,-0.00050282,0.00009726,-0.00053495,-0.00013492,0.00001942,0.0001559
 6,-0.00001777,0.00000621,0.00010938,-0.00012027,0.00003678,0.00010685,
 0.00014807,-0.00000844,0.00000430,0.00045745,0.00008275,0.00009409,-0.
 00004259,0.00001677,0.00005966,-0.00031610,0.00002902,-0.00030415,-0.0
 0011719,0.00004556,-0.00006703,-0.00005400,-0.00005932,0.00005550,0.00
 215166,0.00029106,0.00020086,-0.00185940,-0.00042607,-0.00597412,0.000
 10685,0.00006104,-0.00076731,-0.00006462,0.00004872,0.00007550,-0.0000
 3839,0.00035220,0.00018913,0.00014778,-0.00025299,-0.00002620,0.033974
 82,0.00328037,-0.01465932,0.02540013,0.00324108,-0.08328516,0.00051254
 ,-0.00019877,0.00119959,-0.01187068,-0.00050613,0.00436686,-0.00875311
 ,-0.00166508,0.00315785,0.00155793,0.00079993,0.00009411,0.00047556,0.
 00023803,0.00031990,-0.00015758,-0.00009365,-0.00003577,0.00003124,0.0
 0009766,-0.00003449,0.00003499,-0.00004819,-0.00001006,-0.00000515,0.0
 0000725,-0.00001453,-0.00000842,-0.00005216,0.00002054,0.03058550,0.00
 318253,0.54756897,-0.00000102,0.00000633,-0.00000220,-0.00000743,-0.00
 000128,0.00003557,-0.00002531,0.00005683,-0.00012986,-0.00001255,-0.00
 002267,-0.00000646,0.00000799,0.00001048,-0.00000846,-0.00000999,0.000
 00155,0.00002511,-0.00005022,-0.00002883,0.00001917,0.00043246,-0.0001
 3883,0.00037190,0.00000210,-0.00002888,-0.00009618,-0.00021977,0.00015
 521,-0.00004411,0.00002332,0.00000204,0.00001783,-0.00005260,0.0000287
 1,0.00001682,-0.00003906,-0.00001205,-0.00028457,-0.00010288,-0.000012
 42,0.00007257,0.00024026,0.,0.00000149,-0.00008840,0.00002425,-0.00004
 070,-0.00018618,-0.00005549,0.00005500,-0.00005041,0.00003780,-0.00002
 687,0.00001636,0.00004132,0.00001767,-0.00075059,-0.00010129,-0.000055
 32,0.00066764,0.00005199,0.00200297,-0.00004666,-0.00001072,0.00029843
 ,0.00002393,-0.00002431,-0.00001234,0.00007045,-0.00005141,-0.00004924
 ,-0.00001114,0.00008119,-0.00003395,-0.00693676,-0.00090732,-0.0002711
 3,-0.00077391,-0.00201550,0.03255595,-0.00000096,-0.00015545,-0.000136
 50,0.00111872,-0.00030627,-0.00039633,0.00090088,0.00057157,-0.0003064
 0,0.00074366,0.00001838,-0.00020692,-0.00061468,0.00035943,-0.00031197
 ,0.00038564,-0.00025955,0.00010392,0.00009025,-0.00000546,0.00007056,-
 0.00001618,0.00000286,0.00000832,-0.00000143,0.00005605,0.00003029,0.0
 0000583,0.00000791,-0.00000515,-0.04516359,-0.00008629,0.00746012,0.04
 987772,0.00000221,0.00000181,0.00000476,0.00002520,-0.00001096,0.00001
 718,-0.00001499,0.00003340,-0.00001654,-0.00001907,-0.00000005,-0.0000
 0505,-0.00000011,0.00001816,-0.00001809,-0.00000581,0.00000345,0.00000
 939,-0.00001901,-0.00000816,0.00000669,0.00019706,-0.00007271,0.000079
 07,-0.00009695,-0.00006111,0.00001134,-0.00006540,-0.00001162,-0.00001
 768,-0.00001487,0.00001780,0.00000058,0.00002335,0.00005101,-0.0000076
 0,-0.00006565,0.00006561,-0.00006465,0.00003565,-0.00005197,0.00000876
 ,-0.00027887,0.00003123,0.00004089,0.00009728,-0.00004059,0.00003712,0
 .00017111,0.00003326,-0.00006853,0.00006033,-0.00002355,0.00002218,-0.
 00000178,0.00001652,0.00002313,-0.00006796,-0.00001774,-0.00001989,0.0
 0000140,0.00028795,0.00022189,0.00000425,0.00001075,0.00003979,0.00000
 330,-0.00000599,0.00000025,0.00003421,-0.00001348,0.00000353,-0.000070
 14,-0.00000998,0.00001566,-0.00151002,-0.00042824,-0.00012760,-0.00008
 607,-0.00152321,0.00379956,-0.00004068,0.00017683,-0.00041776,0.000131
 48,-0.00003739,0.00036197,0.00004535,0.00014393,-0.00045383,0.00055225
 ,0.00048358,-0.00058949,0.00034167,-0.00023804,0.00058507,-0.00012231,
 0.00023208,0.00000349,0.00004240,0.00001636,-0.00001967,-0.00001360,0.
 00003977,0.00001920,0.00001270,0.00000399,0.00001815,-0.00000469,-0.00
 000049,-0.00001629,-0.00012642,-0.04708812,0.01496933,0.00100929,0.046
 16339,0.00001517,0.00001582,0.00001530,-0.00001449,-0.00000659,0.00002
 803,-0.00001798,0.00004770,-0.00011440,-0.00002644,-0.00002482,-0.0000
 0048,0.00001528,0.00001384,-0.00002716,-0.00002153,0.00000235,0.000042
 33,-0.00004129,-0.00002411,0.00001796,0.00046857,-0.00011641,0.0002058
 9,-0.00003384,-0.00001281,-0.00010427,-0.00025310,0.00009571,-0.000128
 77,0.00000367,0.00000832,0.00004281,-0.00004978,0.00002264,0.00001917,
 -0.00018654,0.00002808,-0.00011475,0.00011080,-0.00003997,0.00006140,0
 .00020543,-0.00002743,0.00005493,-0.00004209,0.00000173,0.00000107,-0.
 00011059,-0.00002758,-0.00004447,-0.00005339,0.00004253,-0.00001604,-0
 .00002479,-0.00000758,0.00000553,0.00031257,0.00003573,0.00005446,-0.0
 0048121,-0.00020630,-0.00056855,0.00001984,0.00001743,-0.00011820,-0.0
 0002532,0.00000128,0.00000177,-0.00000392,0.00003097,0.00002025,0.0000
 7841,-0.00003011,-0.00001804,0.00203737,-0.00006125,0.00109595,-0.0005
 2724,0.00043349,-0.00762768,-0.00006619,-0.00009199,0.00034791,0.00025
 459,0.00047259,0.00040749,0.00040275,-0.00043956,0.00029022,0.00002975
 ,0.00022661,-0.00024446,0.00042886,0.00011391,0.00071659,-0.00017607,0
 .00005126,-0.00022019,-0.00003196,-0.00001605,-0.00006099,0.00000176,0
 .00000866,0.00001217,0.00000945,-0.00001127,0.00000537,-0.00000621,-0.
 00001856,-0.00001055,0.00820225,0.01492636,-0.29935334,-0.01041488,-0.
 01660077,0.32445896,0.00001838,0.00001004,0.00002414,-0.00001163,-0.00
 000775,-0.00000476,0.00001706,-0.00004859,-0.00000884,0.00001165,0.000
 01089,0.00000896,0.00002625,-0.00001466,-0.00000599,-0.00002525,0.0000
 1094,0.00003495,0.00003538,0.00002159,0.00002323,-0.00050726,0.0000927
 6,-0.00045662,0.00010477,0.00005046,0.00001164,-0.00025260,-0.00001611
 ,-0.00047902,-0.00000095,0.00001785,0.00002831,0.00001054,-0.00005380,
 0.00000360,-0.00003232,-0.00002764,0.00037974,0.00017631,0.00003318,-0
 .00002363,0.00004026,-0.00000239,-0.00002641,-0.00002355,-0.00001102,0
 .00000029,-0.00000290,0.00000538,0.00005793,-0.00000301,-0.00002327,0.
 00002000,-0.00001480,0.00002913,0.00010941,0.00004489,0.00008478,-0.00
 000473,-0.00004427,-0.00000097,0.00003127,0.00000470,0.00002129,0.0000
 1285,-0.00000596,-0.00001185,0.00001591,0.00020786,0.00020257,-0.00000
 042,-0.00000822,-0.00001557,-0.00003763,-0.00019844,-0.00153285,-0.001
 89709,-0.01366903,-0.02684173,-0.01148235,-0.00001867,0.00010387,0.000
 13592,-0.00568214,-0.00031787,0.00272977,0.00075156,0.00028492,-0.0006
 1300,0.00038625,0.00089833,-0.00033690,0.00119495,-0.00011032,0.001369
 49,-0.00051420,0.00051462,-0.00026891,0.00006911,-0.00006614,0.0000210
 5,-0.00000893,0.00008894,0.00004214,0.00002678,-0.00002109,-0.00001259
 ,-0.00002334,0.00000666,-0.00002680,-0.08473424,-0.08253362,-0.0387848
 0,-0.00004969,0.00159870,0.00008936,0.09500904,0.00000784,-0.00000015,
 -0.00001662,0.00001180,0.00003421,0.00002543,-0.00007841,0.00022887,-0
 .00009205,-0.00002658,-0.00004268,0.00000240,0.00000593,0.00004699,0.0
 0000799,0.00003606,-0.00002493,-0.00000849,-0.00013682,-0.00008108,-0.
 00000353,0.00124267,-0.00048179,0.00080677,-0.00017912,-0.00018100,-0.
 00006521,-0.00070708,0.00027990,-0.00011820,-0.00001474,-0.00000840,-0
 .00000341,-0.00004938,0.00015853,-0.00000521,-0.00023234,0.00015650,-0
 .00075698,-0.00007064,-0.00014180,0.00014184,-0.00013362,0.00005738,0.
 00009491,0.00006632,-0.00001709,0.00002077,0.00004566,-0.00006571,-0.0
 0012847,-0.00002342,0.00009137,-0.00003128,-0.00000656,0.00004605,0.00
 005270,-0.00004518,-0.00002411,-0.00005724,-0.00002526,0.00002294,0.00
 018459,0.00000345,0.00001516,0.00004289,-0.00000385,-0.00001768,0.0000
 0795,0.00008426,0.00006654,0.00003150,0.00000635,-0.00001265,-0.000003
 94,-0.00094983,-0.00115100,-0.00116396,-0.00157444,-0.00211689,0.00025
 505,-0.00004263,0.00002432,-0.00001965,-0.00027075,0.00148349,0.000102
 89,-0.00028034,0.00074316,0.00038432,0.00138366,0.00067360,-0.00091344
 ,-0.00006169,0.00029159,0.00046410,0.00025766,-0.00011379,0.00000680,0
 .00007286,0.00005003,0.00001114,-0.00000984,-0.00001430,0.00000817,0.0
 0000047,0.00006216,0.00005686,0.00001484,-0.00001924,-0.00000225,-0.08
 332419,-0.22379275,-0.07992644,0.00212474,0.00274799,0.00100200,0.0928
 3373,0.24106430,-0.00003467,-0.00001406,-0.00003136,0.00008115,-0.0000
 0122,-0.00001818,0.00004882,-0.00003803,0.00012483,0.00002015,0.000016
 11,-0.00000073,-0.00004523,0.00002397,0.00004387,0.00005334,-0.0000124
 1,-0.00005771,0.00001964,0.00002493,-0.00002872,-0.00043497,0.00004968
 ,-0.00015004,0.00008429,0.00001945,0.00008684,-0.00045721,-0.00000999,
 -0.00033058,0.00001521,-0.00002605,-0.00004612,0.00001849,-0.00003086,
 -0.00002157,0.00018787,-0.00002749,-0.00000036,-0.00015631,0.00005345,
 -0.00004795,-0.00003193,-0.00003375,-0.00004667,-0.00001802,0.00001681
 ,-0.00002421,0.00003904,0.00003663,0.00009009,0.00002987,-0.00001698,0
 .00000364,0.00003524,0.00000344,-0.00004599,-0.00007521,-0.00005039,-0
 .00003727,0.00007242,-0.00011604,0.00004649,-0.00002163,-0.00000932,0.
 00002700,0.00000893,0.00001060,-0.00000585,-0.00011703,-0.00006891,0.0
 0002104,-0.00001933,0.00001704,0.00001365,0.00019306,0.00100675,0.0004
 7355,0.00371320,0.00929144,0.00407824,-0.00004720,-0.00007760,-0.00001
 874,0.00235138,0.00046427,-0.00019428,-0.00064467,-0.00028337,0.000188
 42,0.00103637,-0.00007554,-0.00074198,-0.00039344,0.00001710,-0.001460
 06,0.00025019,-0.00024843,0.00038278,-0.00000124,0.00002834,0.00016492
 ,0.00000705,-0.00004354,-0.00002555,-0.00001637,0.00000754,-0.00000330
 ,0.00000656,0.00003119,0.00002055,-0.03951078,-0.08097657,-0.08392192,
 -0.01257555,-0.02760946,-0.01109082,0.04142144,0.08965217,0.08902089,-
 0.00000537,0.00000555,-0.00000003,0.00001433,-0.00001196,0.00001238,0.
 00000763,-0.00001561,-0.00002520,-0.00000265,0.00000295,-0.00000131,-0
 .00000153,0.00001104,0.00000181,-0.00000947,-0.00000243,0.00001433,0.0
 0000548,0.00000917,0.00000918,0.00000856,-0.00007156,-0.00001819,0.000
 03955,0.00006176,-0.00024284,-0.00013159,-0.00009629,-0.00016952,-0.00
 002129,-0.00001483,0.00014373,-0.00001970,-0.00001812,0.00011057,0.000
 00365,-0.00000583,0.00008349,0.00000891,0.00003281,0.00000733,0.000198
 11,0.00006093,-0.00019338,-0.00010028,-0.00001292,-0.00002035,-0.00028
 509,0.00024867,-0.00025312,-0.00002076,-0.00001096,0.00001163,0.000000
 88,0.00000383,0.00001082,0.00005902,-0.00008812,0.00000567,0.00002258,
 -0.00022145,0.00005314,-0.00000974,0.00000133,0.00000442,-0.00000912,-
 0.00001411,0.00006759,-0.00002197,0.00001585,-0.00002658,0.00029579,-0
 .00013908,-0.00006702,0.00062908,0.00087395,-0.00168779,-0.01844201,0.
 02479849,-0.00884230,0.00013709,-0.00048013,0.00111395,0.00075463,-0.0
 0029835,-0.00057488,-0.00547492,-0.00143107,0.00249576,0.00032374,-0.0
 0012219,0.00022274,-0.00028347,0.00028178,-0.00009089,0.00014480,-0.00
 018938,-0.00000814,0.00003465,-0.00001972,0.00002029,-0.00001645,-0.00
 000375,0.00000290,0.00000630,0.00000433,0.00000803,-0.00000182,0.00000
 141,-0.00000384,-0.12212867,0.10761242,-0.04042517,0.00060418,-0.00176
 478,-0.00007703,0.00769563,-0.00995161,0.00490706,0.13599129,-0.000021
 27,0.00000753,0.00000918,0.00012688,-0.00005760,0.00001476,0.00004385,
 -0.00014549,0.00009488,-0.00000252,0.00005704,-0.00000537,-0.00004947,
 0.00002009,-0.00000730,-0.00001788,-0.00000594,0.00001781,0.00007311,0
 .00007515,0.00000158,-0.00066205,0.00011645,-0.00064084,-0.00003431,0.
 00005237,-0.00023138,0.00046768,-0.00036597,0.00013428,-0.00017572,0.0
 0004346,0.00016786,0.00006200,-0.00005417,0.00006650,0.00002989,0.0001
 1814,0.00062452,0.00017970,0.00001051,-0.00011564,-0.00006615,-0.00006
 981,0.00016212,0.00005883,-0.00006709,0.00009579,0.00051470,0.00000486
 ,0.00029955,0.00010425,-0.00008978,0.00004052,0.00000443,-0.00000797,-
 0.00000778,0.00008685,-0.00002187,0.00000461,-0.00017487,0.00017367,-0
 .00026570,0.00000420,0.00000150,-0.00003566,0.00000365,0.00001542,-0.0
 0000400,-0.00002890,-0.00002929,0.00000290,-0.00008186,-0.00004824,0.0
 0007779,0.00012841,0.00035710,0.00030977,-0.00260417,0.00385934,-0.001
 93116,0.00016084,0.00006970,-0.00045998,0.00039971,0.00078189,-0.00037
 886,-0.00126509,0.00130835,0.00051424,-0.00037570,0.00004937,-0.000789
 23,0.00090086,-0.00076791,0.00060999,-0.00054767,0.00058648,-0.0000173
 4,0.00000567,-0.00001331,-0.00000741,-0.00001484,0.00007397,0.00002051
 ,0.00003226,-0.00006318,-0.00001405,-0.00001231,0.00001800,-0.00002023
 ,0.10747638,-0.19958716,0.05659658,-0.00042393,-0.00093547,0.00016416,
 0.01473662,-0.02003805,0.00899908,-0.11904205,0.21456792,-0.00000639,-
 0.00000990,-0.00000473,0.00002848,-0.00000208,-0.00001365,0.00002521,-
 0.00001526,0.00009258,0.00000008,0.00001584,-0.00000206,-0.00000680,0.
 00000833,0.00000457,0.00001650,0.00000819,-0.00002836,0.00002570,0.000
 01899,-0.00001194,-0.00015488,0.00006077,-0.00013655,-0.00006649,-0.00
 001800,0.00025702,-0.00003969,-0.00018336,-0.00009096,0.00008521,0.000
 00876,-0.00012900,0.00008649,0.00002997,-0.00005442,0.00008378,0.00000
 238,0.00005699,-0.00001931,-0.00001729,-0.00004963,-0.00070315,0.00012
 266,-0.00024025,0.00014592,-0.00006677,0.00000362,-0.00007189,0.000463
 53,-0.00059136,0.00015010,-0.00009303,0.00009085,0.00000334,-0.0000020
 3,-0.00000569,-0.00007879,0.00002760,-0.00000648,0.00014359,0.00002941
 ,0.00004919,-0.00001403,-0.00000149,0.00002335,0.00000707,0.00001435,-
 0.00002853,-0.00002465,-0.00001699,0.00000004,-0.00008261,0.00008711,-
 0.00007548,0.00075181,-0.00130856,0.00112125,0.00572120,-0.00883036,0.
 00225431,0.00000328,0.00025346,-0.00022890,-0.00064164,0.00019746,0.00
 010747,0.00234305,0.00010474,0.00003500,-0.00029125,0.00019206,-0.0002
 1914,0.00018790,-0.00032409,0.00002787,-0.00012418,0.00022742,0.000035
 16,0.00001344,0.00000533,0.00000890,-0.00000364,0.00003179,0.00000367,
 0.00000222,-0.00000230,-0.00000037,-0.00000143,0.00001287,-0.00000507,
 -0.04106479,0.05735854,-0.06865567,-0.01774859,0.02575393,-0.00804238,
 0.00789906,-0.01004691,0.00356319,0.04342072,-0.06409711,0.07088560\\-
 0.00001424,0.00021125,0.00075275,0.00007528,-0.00052505,0.00008261,-0.
 00029852,-0.00001160,0.00029003,0.00070407,0.00047888,-0.00036598,-0.0
 0081510,0.00016740,-0.00041324,0.00002769,-0.00008063,-0.00069482,0.00
 063163,-0.00005930,0.00034288,0.00016007,0.00000699,-0.00015801,-0.000
 17849,0.00012454,0.00032679,-0.00041787,0.00017401,0.00002344,-0.00003
 478,-0.00007959,-0.00078989,0.00054218,-0.00020933,0.00030359,0.002724
 64,0.00118929,-0.00060394,-0.00273529,-0.00127907,0.00068413,0.0002923
 5,0.00045037,-0.00011917,0.00000851,-0.00003053,0.00091086,-0.00076809
 ,0.00016431,-0.00038833,0.00029272,-0.00081362,-0.00031164,0.00020058,
 0.00067846,0.00035398,0.00009127,0.00024468,-0.00051116,0.00035543,-0.
 00000205,0.00023462,-0.00086138,-0.00018915,0.00014945,0.00054361,-0.0
 0072239,0.00030370,-0.00027041,-0.00064450,-0.00025509,-0.00045056,0.0
 0059767,-0.00017033,0.00019012,0.00020153,0.00025848,0.00024624,0.0000
 3474,0.00024224,0.00012683,-0.00001897,0.00002723,-0.00024474,-0.00064
 377,-0.00033785,-0.00030170,0.00058693,-0.00026358,0.00004194,-0.00026
 965,0.00002657,-0.00031348,-0.00043444,-0.00035182,0.00002221,0.000051
 24,0.00019798,-0.00016068,-0.00064574,-0.00001909,-0.00015496,0.000660
 56,-0.00053328,0.00074288,0.00026633,0.00006897,-0.00027980,0.00031587
 ,0.00080272,-0.00047494,0.00003303,0.00032705,-0.00007509,0.00004317,-
 0.00099952,0.00037347,0.00066495,0.00026925,0.00045639,-0.00068684,0.0
 0030739\\\@


 TOM, TOM, THE BURGLAR'S SON
 STOLE A MACHINE AND AWAY HE RUN
 THE JOB WAS NEAT, BUT TOM GOT BEAT
 BY THE TIME HE GOT HOME IT WAS OBSOLETE.
 Job cpu time:       0 days  1 hours 14 minutes  6.4 seconds.
 Elapsed time:       0 days  0 hours  9 minutes 19.0 seconds.
 File lengths (MBytes):  RWF=    370 Int=      0 D2E=      0 Chk=      7 Scr=      1
 Normal termination of Gaussian 16 at Sat Jan 21 11:12:23 2023.
