 Entering Gaussian System, Link 0=/dragofs/sw/campus/0.2/software/gaussian/16.gaussian/gaussian/g16_legacy/g16
 Input=C29H34O12_pair_039_048.com
 Output=C29H34O12_pair_039_048.log
 Initial command:
 /dragofs/sw/campus/0.2/software/gaussian/16.gaussian/gaussian/g16_legacy/l1.exe "/tmp/jramos/35728/Gau-792479.inp" -scrdir="/tmp/jramos/35728/"
 Entering Link 1 = /dragofs/sw/campus/0.2/software/gaussian/16.gaussian/gaussian/g16_legacy/l1.exe PID=    792480.
  
 Copyright (c) 1988,1990,1992,1993,1995,1998,2003,2009,2016,
            Gaussian, Inc.  All Rights Reserved.
  
 This is part of the Gaussian(R) 16 program.  It is based on
 the Gaussian(R) 09 system (copyright 2009, Gaussian, Inc.),
 the Gaussian(R) 03 system (copyright 2003, Gaussian, Inc.),
 the Gaussian(R) 98 system (copyright 1998, Gaussian, Inc.),
 the Gaussian(R) 94 system (copyright 1995, Gaussian, Inc.),
 the Gaussian 92(TM) system (copyright 1992, Gaussian, Inc.),
 the Gaussian 90(TM) system (copyright 1990, Gaussian, Inc.),
 the Gaussian 88(TM) system (copyright 1988, Gaussian, Inc.),
 the Gaussian 86(TM) system (copyright 1986, Carnegie Mellon
 University), and the Gaussian 82(TM) system (copyright 1983,
 Carnegie Mellon University). Gaussian is a federally registered
 trademark of Gaussian, Inc.
  
 This software contains proprietary and confidential information,
 including trade secrets, belonging to Gaussian, Inc.
  
 This software is provided under written license and may be
 used, copied, transmitted, or stored only in accord with that
 written license.
  
 The following legend is applicable only to US Government
 contracts under FAR:
  
                    RESTRICTED RIGHTS LEGEND
  
 Use, reproduction and disclosure by the US Government is
 subject to restrictions as set forth in subparagraphs (a)
 and (c) of the Commercial Computer Software - Restricted
 Rights clause in FAR 52.227-19.
  
 Gaussian, Inc.
 340 Quinnipiac St., Bldg. 40, Wallingford CT 06492
  
  
 ---------------------------------------------------------------
 Warning -- This program may not be used in any manner that
 competes with the business of Gaussian, Inc. or will provide
 assistance to any competitor of Gaussian, Inc.  The licensee
 of this program is prohibited from giving any competitor of
 Gaussian, Inc. access to this program.  By using this program,
 the user acknowledges that Gaussian, Inc. is engaged in the
 business of creating and licensing software in the field of
 computational chemistry and represents and warrants to the
 licensee that it is not a competitor of Gaussian, Inc. and that
 it will not use this program in any manner prohibited above.
 ---------------------------------------------------------------
  

 Cite this work as:
 Gaussian 16, Revision A.03,
 M. J. Frisch, G. W. Trucks, H. B. Schlegel, G. E. Scuseria, 
 M. A. Robb, J. R. Cheeseman, G. Scalmani, V. Barone, 
 G. A. Petersson, H. Nakatsuji, X. Li, M. Caricato, A. V. Marenich, 
 J. Bloino, B. G. Janesko, R. Gomperts, B. Mennucci, H. P. Hratchian, 
 J. V. Ortiz, A. F. Izmaylov, J. L. Sonnenberg, D. Williams-Young, 
 F. Ding, F. Lipparini, F. Egidi, J. Goings, B. Peng, A. Petrone, 
 T. Henderson, D. Ranasinghe, V. G. Zakrzewski, J. Gao, N. Rega, 
 G. Zheng, W. Liang, M. Hada, M. Ehara, K. Toyota, R. Fukuda, 
 J. Hasegawa, M. Ishida, T. Nakajima, Y. Honda, O. Kitao, H. Nakai, 
 T. Vreven, K. Throssell, J. A. Montgomery, Jr., J. E. Peralta, 
 F. Ogliaro, M. J. Bearpark, J. J. Heyd, E. N. Brothers, K. N. Kudin, 
 V. N. Staroverov, T. A. Keith, R. Kobayashi, J. Normand, 
 K. Raghavachari, A. P. Rendell, J. C. Burant, S. S. Iyengar, 
 J. Tomasi, M. Cossi, J. M. Millam, M. Klene, C. Adamo, R. Cammi, 
 J. W. Ochterski, R. L. Martin, K. Morokuma, O. Farkas, 
 J. B. Foresman, and D. J. Fox, Gaussian, Inc., Wallingford CT, 2016.
 
 ******************************************
 Gaussian 16:  EM64L-G16RevA.03 25-Dec-2016
                18-Jan-2023 
 ******************************************
 %chk=C29H34O12_pair_039_048.chk
 %nproc=8
 Will use up to    8 processors via shared memory.
 %mem=2000Mb
 -------------------------------------------
 #p opt blyp/6-31G** EmpiricalDispersion=GD3
 -------------------------------------------
 1/18=20,19=15,26=3,38=1/1,3;
 2/9=110,12=2,17=6,18=5,40=1/2;
 3/5=1,6=6,7=101,11=2,25=1,30=1,71=1,74=402,124=31/1,2,3;
 4//1;
 5/5=2,38=5/2;
 6/7=2,8=2,9=2,10=2,28=1/1;
 7//1,2,3,16;
 1/18=20,19=15,26=3/3(2);
 2/9=110/2;
 99//99;
 2/9=110/2;
 3/5=1,6=6,7=101,11=2,25=1,30=1,71=1,74=402,124=31/1,2,3;
 4/5=5,16=3,69=1/1;
 5/5=2,38=5/2;
 7//1,2,3,16;
 1/18=20,19=15,26=3/3(-5);
 2/9=110/2;
 6/7=2,8=2,9=2,10=2,19=2,28=1/1;
 99/9=1/99;
 Leave Link    1 at Wed Jan 18 03:20:07 2023, MaxMem=   262144000 cpu:               0.2 elap:               0.0
 (Enter /dragofs/sw/campus/0.2/software/gaussian/16.gaussian/gaussian/g16_legacy/l101.exe)
 ------------------------------------------------
 Conformer number 199. Energy MM = 0.000 kcal/mol
 ------------------------------------------------
 Symbolic Z-matrix:
 Charge =  0 Multiplicity = 1
 C                     21.849    2.983     31.743 
 C                     19.74     1.383     34.564 
 H                     18.959    0.568     34.644 
 C                     20.274    1.639     33.315 
 H                     20.023    0.957     32.447 
 C                     21.221    2.616     33.123 
 C                     21.673    3.285     34.281 
 H                     22.464    4.03      34.278 
 C                     21.151    2.913     35.56 
 H                     21.623    3.323     36.437 
 C                     20.191    1.915     35.713 
 O                     20.306    1.748     38.12 
 C                     19.857    1.405     37.066 
 O                     18.809    0.522     36.947 
 O                     23.021    3.633     32.003 
 O                     21.495    2.638     30.64 
 C                     18.108    0.175     38.147 
 H                     18.814   -0.427     38.772 
 H                     17.771    1.037     38.699 
 C                     16.914   -0.686     37.848 
 H                     16.097   -0.08      37.357 
 H                     16.493   -0.959     38.802 
 O                     17.228   -1.9       37.141 
 H                     16.337   -2.344     37.12 
 C                     29.38    -0.325     35.529 
 C                     26.819    1.428     33.411 
 H                     25.836    1.947     33.612 
 C                     27.498    0.981     34.535 
 H                     27.023    0.938     35.56 
 C                     28.705    0.263     34.389 
 C                     29.193    0.08      33.098 
 H                     30.063   -0.521     32.805 
 C                     28.504    0.549     31.968 
 H                     28.927    0.43      31.021 
 C                     27.285    1.21      32.106 
 O                     26.98     1.873     29.759 
 C                     26.575    1.8       30.921 
 O                     25.408    2.327     31.196 
 O                     30.307   -1.214     35.208 
 O                     29.162   -0.091     36.702 
 C                     24.598    3.004     30.226 
 H                     23.888    2.323     29.683 
 H                     25.214    3.413     29.401 
 C                     23.89     4.09      30.921 
 H                     23.197    4.728     30.266 
 H                     24.681    4.728     31.35 
 H                     30.664   -1.57      36.051 
 H                     18.498    0.256     45.495 
 C                     18.436   -0.809     45.852 
 C                     19.678   -1.662     45.443 
 H                     18.189   -0.711     46.896 
 H                     17.45    -1.256     45.415 
 H                     19.371   -2.734     45.607 
 H                     20.614   -1.482     46.021 
 C                     20.126   -1.644     43.928 
 C                     21.185   -2.764     43.563 
 H                     19.176   -1.95      43.43 
 H                     21.204   -2.923     42.459 
 H                     20.728   -3.724     43.832 
 C                     20.422   -0.29      43.397 
 O                     21.102   -0.543     42.284 
 O                     20.218    0.805     43.816 
 C                     21.518    0.483     41.356 
 H                     22.198    1.264     41.808 
 H                     20.676    1.038     40.846 
 C                     21.781   -1.555     39.672 
 C                     22.29    -0.225     40.285 
 H                     22.189   -1.989     38.703 
 H                     20.875   -1.961     40.111 
 H                     23.071    0.423     39.782 
 O                     22.924   -1.493     40.584 
 C                     22.542   -2.513     44.206 
 H                     22.875   -1.46      44.122 
 H                     23.208   -3.266     43.823 
 H                     22.49    -2.695     45.249 
 
 Add virtual bond connecting atoms H65        and O12        Dist= 5.37D+00.
 Add virtual bond connecting atoms H69        and H18        Dist= 5.47D+00.
 ITRead=  0  0  0  0  0  0  0  0  0  0  0  0  0  0  0  0  0  0  0  0
 ITRead=  0  0  0  0  0  0  0  0  0  0  0  0  0  0  0  0  0  0  0  0
 ITRead=  0  0  0  0  0  0  0  0  0  0  0  0  0  0  0  0  0  0  0  0
 ITRead=  0  0  0  0  0  0  0  0  0  0  0  0  0  0  0
 MicOpt= -1 -1 -1 -1 -1 -1 -1 -1 -1 -1 -1 -1 -1 -1 -1 -1 -1 -1 -1 -1
 MicOpt= -1 -1 -1 -1 -1 -1 -1 -1 -1 -1 -1 -1 -1 -1 -1 -1 -1 -1 -1 -1
 MicOpt= -1 -1 -1 -1 -1 -1 -1 -1 -1 -1 -1 -1 -1 -1 -1 -1 -1 -1 -1 -1
 MicOpt= -1 -1 -1 -1 -1 -1 -1 -1 -1 -1 -1 -1 -1 -1 -1
 NAtoms=     75 NQM=       75 NQMF=       0 NMMI=      0 NMMIF=      0
                NMic=       0 NMicF=      0.
                    Isotopes and Nuclear Properties:
 (Nuclear quadrupole moments (NQMom) in fm**2, nuclear magnetic moments (NMagM)
  in nuclear magnetons)

  Atom         1           2           3           4           5           6           7           8           9          10
 IAtWgt=          12          12           1          12           1          12          12           1          12           1
 AtmWgt=  12.0000000  12.0000000   1.0078250  12.0000000   1.0078250  12.0000000  12.0000000   1.0078250  12.0000000   1.0078250
 NucSpn=           0           0           1           0           1           0           0           1           0           1
 AtZEff=  -0.0000000  -0.0000000  -0.0000000  -0.0000000  -0.0000000  -0.0000000  -0.0000000  -0.0000000  -0.0000000  -0.0000000
 NQMom=    0.0000000   0.0000000   0.0000000   0.0000000   0.0000000   0.0000000   0.0000000   0.0000000   0.0000000   0.0000000
 NMagM=    0.0000000   0.0000000   2.7928460   0.0000000   2.7928460   0.0000000   0.0000000   2.7928460   0.0000000   2.7928460
 AtZNuc=   6.0000000   6.0000000   1.0000000   6.0000000   1.0000000   6.0000000   6.0000000   1.0000000   6.0000000   1.0000000

  Atom        11          12          13          14          15          16          17          18          19          20
 IAtWgt=          12          16          12          16          16          16          12           1           1          12
 AtmWgt=  12.0000000  15.9949146  12.0000000  15.9949146  15.9949146  15.9949146  12.0000000   1.0078250   1.0078250  12.0000000
 NucSpn=           0           0           0           0           0           0           0           1           1           0
 AtZEff=  -0.0000000  -0.0000000  -0.0000000  -0.0000000  -0.0000000  -0.0000000  -0.0000000  -0.0000000  -0.0000000  -0.0000000
 NQMom=    0.0000000   0.0000000   0.0000000   0.0000000   0.0000000   0.0000000   0.0000000   0.0000000   0.0000000   0.0000000
 NMagM=    0.0000000   0.0000000   0.0000000   0.0000000   0.0000000   0.0000000   0.0000000   2.7928460   2.7928460   0.0000000
 AtZNuc=   6.0000000   8.0000000   6.0000000   8.0000000   8.0000000   8.0000000   6.0000000   1.0000000   1.0000000   6.0000000

  Atom        21          22          23          24          25          26          27          28          29          30
 IAtWgt=           1           1          16           1          12          12           1          12           1          12
 AtmWgt=   1.0078250   1.0078250  15.9949146   1.0078250  12.0000000  12.0000000   1.0078250  12.0000000   1.0078250  12.0000000
 NucSpn=           1           1           0           1           0           0           1           0           1           0
 AtZEff=  -0.0000000  -0.0000000  -0.0000000  -0.0000000  -0.0000000  -0.0000000  -0.0000000  -0.0000000  -0.0000000  -0.0000000
 NQMom=    0.0000000   0.0000000   0.0000000   0.0000000   0.0000000   0.0000000   0.0000000   0.0000000   0.0000000   0.0000000
 NMagM=    2.7928460   2.7928460   0.0000000   2.7928460   0.0000000   0.0000000   2.7928460   0.0000000   2.7928460   0.0000000
 AtZNuc=   1.0000000   1.0000000   8.0000000   1.0000000   6.0000000   6.0000000   1.0000000   6.0000000   1.0000000   6.0000000

  Atom        31          32          33          34          35          36          37          38          39          40
 IAtWgt=          12           1          12           1          12          16          12          16          16          16
 AtmWgt=  12.0000000   1.0078250  12.0000000   1.0078250  12.0000000  15.9949146  12.0000000  15.9949146  15.9949146  15.9949146
 NucSpn=           0           1           0           1           0           0           0           0           0           0
 AtZEff=  -0.0000000  -0.0000000  -0.0000000  -0.0000000  -0.0000000  -0.0000000  -0.0000000  -0.0000000  -0.0000000  -0.0000000
 NQMom=    0.0000000   0.0000000   0.0000000   0.0000000   0.0000000   0.0000000   0.0000000   0.0000000   0.0000000   0.0000000
 NMagM=    0.0000000   2.7928460   0.0000000   2.7928460   0.0000000   0.0000000   0.0000000   0.0000000   0.0000000   0.0000000
 AtZNuc=   6.0000000   1.0000000   6.0000000   1.0000000   6.0000000   8.0000000   6.0000000   8.0000000   8.0000000   8.0000000

  Atom        41          42          43          44          45          46          47          48          49          50
 IAtWgt=          12           1           1          12           1           1           1           1          12          12
 AtmWgt=  12.0000000   1.0078250   1.0078250  12.0000000   1.0078250   1.0078250   1.0078250   1.0078250  12.0000000  12.0000000
 NucSpn=           0           1           1           0           1           1           1           1           0           0
 AtZEff=  -0.0000000  -0.0000000  -0.0000000  -0.0000000  -0.0000000  -0.0000000  -0.0000000  -0.0000000  -0.0000000  -0.0000000
 NQMom=    0.0000000   0.0000000   0.0000000   0.0000000   0.0000000   0.0000000   0.0000000   0.0000000   0.0000000   0.0000000
 NMagM=    0.0000000   2.7928460   2.7928460   0.0000000   2.7928460   2.7928460   2.7928460   2.7928460   0.0000000   0.0000000
 AtZNuc=   6.0000000   1.0000000   1.0000000   6.0000000   1.0000000   1.0000000   1.0000000   1.0000000   6.0000000   6.0000000

  Atom        51          52          53          54          55          56          57          58          59          60
 IAtWgt=           1           1           1           1          12          12           1           1           1          12
 AtmWgt=   1.0078250   1.0078250   1.0078250   1.0078250  12.0000000  12.0000000   1.0078250   1.0078250   1.0078250  12.0000000
 NucSpn=           1           1           1           1           0           0           1           1           1           0
 AtZEff=  -0.0000000  -0.0000000  -0.0000000  -0.0000000  -0.0000000  -0.0000000  -0.0000000  -0.0000000  -0.0000000  -0.0000000
 NQMom=    0.0000000   0.0000000   0.0000000   0.0000000   0.0000000   0.0000000   0.0000000   0.0000000   0.0000000   0.0000000
 NMagM=    2.7928460   2.7928460   2.7928460   2.7928460   0.0000000   0.0000000   2.7928460   2.7928460   2.7928460   0.0000000
 AtZNuc=   1.0000000   1.0000000   1.0000000   1.0000000   6.0000000   6.0000000   1.0000000   1.0000000   1.0000000   6.0000000

  Atom        61          62          63          64          65          66          67          68          69          70
 IAtWgt=          16          16          12           1           1          12          12           1           1           1
 AtmWgt=  15.9949146  15.9949146  12.0000000   1.0078250   1.0078250  12.0000000  12.0000000   1.0078250   1.0078250   1.0078250
 NucSpn=           0           0           0           1           1           0           0           1           1           1
 AtZEff=  -0.0000000  -0.0000000  -0.0000000  -0.0000000  -0.0000000  -0.0000000  -0.0000000  -0.0000000  -0.0000000  -0.0000000
 NQMom=    0.0000000   0.0000000   0.0000000   0.0000000   0.0000000   0.0000000   0.0000000   0.0000000   0.0000000   0.0000000
 NMagM=    0.0000000   0.0000000   0.0000000   2.7928460   2.7928460   0.0000000   0.0000000   2.7928460   2.7928460   2.7928460
 AtZNuc=   8.0000000   8.0000000   6.0000000   1.0000000   1.0000000   6.0000000   6.0000000   1.0000000   1.0000000   1.0000000

  Atom        71          72          73          74          75
 IAtWgt=          16          12           1           1           1
 AtmWgt=  15.9949146  12.0000000   1.0078250   1.0078250   1.0078250
 NucSpn=           0           0           1           1           1
 AtZEff=  -0.0000000  -0.0000000  -0.0000000  -0.0000000  -0.0000000
 NQMom=    0.0000000   0.0000000   0.0000000   0.0000000   0.0000000
 NMagM=    0.0000000   0.0000000   2.7928460   2.7928460   2.7928460
 AtZNuc=   8.0000000   6.0000000   1.0000000   1.0000000   1.0000000
 Leave Link  101 at Wed Jan 18 03:20:07 2023, MaxMem=   262144000 cpu:               1.0 elap:               0.1
 (Enter /dragofs/sw/campus/0.2/software/gaussian/16.gaussian/gaussian/g16_legacy/l103.exe)

 GradGradGradGradGradGradGradGradGradGradGradGradGradGradGradGradGradGrad
 Berny optimization.
 Initialization pass.
                           ----------------------------
                           !    Initial Parameters    !
                           ! (Angstroms and Degrees)  !
 --------------------------                            --------------------------
 ! Name  Definition              Value          Derivative Info.                !
 --------------------------------------------------------------------------------
 ! R1    R(1,6)                  1.56           estimate D2E/DX2                !
 ! R2    R(1,15)                 1.3652         estimate D2E/DX2                !
 ! R3    R(1,16)                 1.2087         estimate D2E/DX2                !
 ! R4    R(2,3)                  1.1316         estimate D2E/DX2                !
 ! R5    R(2,4)                  1.3823         estimate D2E/DX2                !
 ! R6    R(2,11)                 1.3441         estimate D2E/DX2                !
 ! R7    R(4,5)                  1.1321         estimate D2E/DX2                !
 ! R8    R(4,6)                  1.3741         estimate D2E/DX2                !
 ! R9    R(6,7)                  1.4117         estimate D2E/DX2                !
 ! R10   R(7,8)                  1.0866         estimate D2E/DX2                !
 ! R11   R(7,9)                  1.4306         estimate D2E/DX2                !
 ! R12   R(9,10)                 1.077          estimate D2E/DX2                !
 ! R13   R(9,11)                 1.3932         estimate D2E/DX2                !
 ! R14   R(11,13)                1.484          estimate D2E/DX2                !
 ! R15   R(12,13)                1.1959         estimate D2E/DX2                !
 ! R16   R(12,65)                2.8411         estimate D2E/DX2                !
 ! R17   R(13,14)                1.3756         estimate D2E/DX2                !
 ! R18   R(14,17)                1.4324         estimate D2E/DX2                !
 ! R19   R(15,44)                1.4611         estimate D2E/DX2                !
 ! R20   R(17,18)                1.1187         estimate D2E/DX2                !
 ! R21   R(17,19)                1.0776         estimate D2E/DX2                !
 ! R22   R(17,20)                1.5021         estimate D2E/DX2                !
 ! R23   R(18,69)                2.8972         estimate D2E/DX2                !
 ! R24   R(20,21)                1.1295         estimate D2E/DX2                !
 ! R25   R(20,22)                1.0779         estimate D2E/DX2                !
 ! R26   R(20,23)                1.4395         estimate D2E/DX2                !
 ! R27   R(23,24)                0.9957         estimate D2E/DX2                !
 ! R28   R(25,30)                1.4495         estimate D2E/DX2                !
 ! R29   R(25,39)                1.3239         estimate D2E/DX2                !
 ! R30   R(25,40)                1.2158         estimate D2E/DX2                !
 ! R31   R(26,27)                1.1296         estimate D2E/DX2                !
 ! R32   R(26,28)                1.3872         estimate D2E/DX2                !
 ! R33   R(26,35)                1.4027         estimate D2E/DX2                !
 ! R34   R(28,29)                1.1305         estimate D2E/DX2                !
 ! R35   R(28,30)                1.412          estimate D2E/DX2                !
 ! R36   R(30,31)                1.3922         estimate D2E/DX2                !
 ! R37   R(31,32)                1.0972         estimate D2E/DX2                !
 ! R38   R(31,33)                1.4041         estimate D2E/DX2                !
 ! R39   R(33,34)                1.044          estimate D2E/DX2                !
 ! R40   R(33,35)                1.3935         estimate D2E/DX2                !
 ! R41   R(35,37)                1.5021         estimate D2E/DX2                !
 ! R42   R(36,37)                1.2327         estimate D2E/DX2                !
 ! R43   R(37,38)                1.3097         estimate D2E/DX2                !
 ! R44   R(38,41)                1.4336         estimate D2E/DX2                !
 ! R45   R(39,47)                0.9823         estimate D2E/DX2                !
 ! R46   R(41,42)                1.1237         estimate D2E/DX2                !
 ! R47   R(41,43)                1.1079         estimate D2E/DX2                !
 ! R48   R(41,44)                1.4709         estimate D2E/DX2                !
 ! R49   R(44,45)                1.1473         estimate D2E/DX2                !
 ! R50   R(44,46)                1.1031         estimate D2E/DX2                !
 ! R51   R(48,49)                1.125          estimate D2E/DX2                !
 ! R52   R(49,50)                1.5612         estimate D2E/DX2                !
 ! R53   R(49,51)                1.0773         estimate D2E/DX2                !
 ! R54   R(49,52)                1.1675         estimate D2E/DX2                !
 ! R55   R(50,53)                1.1271         estimate D2E/DX2                !
 ! R56   R(50,54)                1.1147         estimate D2E/DX2                !
 ! R57   R(50,55)                1.58           estimate D2E/DX2                !
 ! R58   R(55,56)                1.584          estimate D2E/DX2                !
 ! R59   R(55,57)                1.1154         estimate D2E/DX2                !
 ! R60   R(55,60)                1.4842         estimate D2E/DX2                !
 ! R61   R(56,58)                1.1156         estimate D2E/DX2                !
 ! R62   R(56,59)                1.0967         estimate D2E/DX2                !
 ! R63   R(56,72)                1.5225         estimate D2E/DX2                !
 ! R64   R(60,61)                1.3286         estimate D2E/DX2                !
 ! R65   R(60,62)                1.19           estimate D2E/DX2                !
 ! R66   R(61,63)                1.4446         estimate D2E/DX2                !
 ! R67   R(63,64)                1.1299         estimate D2E/DX2                !
 ! R68   R(63,65)                1.1301         estimate D2E/DX2                !
 ! R69   R(63,67)                1.4981         estimate D2E/DX2                !
 ! R70   R(66,67)                1.5504         estimate D2E/DX2                !
 ! R71   R(66,68)                1.1374         estimate D2E/DX2                !
 ! R72   R(66,69)                1.0855         estimate D2E/DX2                !
 ! R73   R(66,71)                1.4636         estimate D2E/DX2                !
 ! R74   R(67,70)                1.1326         estimate D2E/DX2                !
 ! R75   R(67,71)                1.4489         estimate D2E/DX2                !
 ! R76   R(72,73)                1.1076         estimate D2E/DX2                !
 ! R77   R(72,74)                1.0758         estimate D2E/DX2                !
 ! R78   R(72,75)                1.06           estimate D2E/DX2                !
 ! A1    A(6,1,15)             106.8068         estimate D2E/DX2                !
 ! A2    A(6,1,16)             128.4786         estimate D2E/DX2                !
 ! A3    A(15,1,16)            124.1344         estimate D2E/DX2                !
 ! A4    A(3,2,4)              117.6378         estimate D2E/DX2                !
 ! A5    A(3,2,11)             117.142          estimate D2E/DX2                !
 ! A6    A(4,2,11)             124.7147         estimate D2E/DX2                !
 ! A7    A(2,4,5)              119.7086         estimate D2E/DX2                !
 ! A8    A(2,4,6)              121.6125         estimate D2E/DX2                !
 ! A9    A(5,4,6)              118.2947         estimate D2E/DX2                !
 ! A10   A(1,6,4)              124.6332         estimate D2E/DX2                !
 ! A11   A(1,6,7)              119.0308         estimate D2E/DX2                !
 ! A12   A(4,6,7)              116.295          estimate D2E/DX2                !
 ! A13   A(6,7,8)              123.7614         estimate D2E/DX2                !
 ! A14   A(6,7,9)              119.5579         estimate D2E/DX2                !
 ! A15   A(8,7,9)              116.5102         estimate D2E/DX2                !
 ! A16   A(7,9,10)             117.9745         estimate D2E/DX2                !
 ! A17   A(7,9,11)             122.4025         estimate D2E/DX2                !
 ! A18   A(10,9,11)            119.0282         estimate D2E/DX2                !
 ! A19   A(2,11,9)             114.8886         estimate D2E/DX2                !
 ! A20   A(2,11,13)            124.5996         estimate D2E/DX2                !
 ! A21   A(9,11,13)            120.0919         estimate D2E/DX2                !
 ! A22   A(13,12,65)           145.3712         estimate D2E/DX2                !
 ! A23   A(11,13,12)           128.3509         estimate D2E/DX2                !
 ! A24   A(11,13,14)           108.2525         estimate D2E/DX2                !
 ! A25   A(12,13,14)           123.1207         estimate D2E/DX2                !
 ! A26   A(13,14,17)           117.1215         estimate D2E/DX2                !
 ! A27   A(1,15,44)            121.2314         estimate D2E/DX2                !
 ! A28   A(14,17,18)           106.8312         estimate D2E/DX2                !
 ! A29   A(14,17,19)           112.854          estimate D2E/DX2                !
 ! A30   A(14,17,20)           111.1677         estimate D2E/DX2                !
 ! A31   A(18,17,19)           109.9759         estimate D2E/DX2                !
 ! A32   A(18,17,20)           107.7222         estimate D2E/DX2                !
 ! A33   A(19,17,20)           108.1724         estimate D2E/DX2                !
 ! A34   A(17,20,21)           110.7293         estimate D2E/DX2                !
 ! A35   A(17,20,22)           106.2278         estimate D2E/DX2                !
 ! A36   A(17,20,23)           114.0646         estimate D2E/DX2                !
 ! A37   A(21,20,22)           103.7747         estimate D2E/DX2                !
 ! A38   A(21,20,23)           113.3745         estimate D2E/DX2                !
 ! A39   A(22,20,23)           107.8353         estimate D2E/DX2                !
 ! A40   A(20,23,24)           101.024          estimate D2E/DX2                !
 ! A41   A(30,25,39)           114.0658         estimate D2E/DX2                !
 ! A42   A(30,25,40)           126.6711         estimate D2E/DX2                !
 ! A43   A(39,25,40)           119.2563         estimate D2E/DX2                !
 ! A44   A(27,26,28)           115.4565         estimate D2E/DX2                !
 ! A45   A(27,26,35)           121.7371         estimate D2E/DX2                !
 ! A46   A(28,26,35)           122.7608         estimate D2E/DX2                !
 ! A47   A(26,28,29)           122.7684         estimate D2E/DX2                !
 ! A48   A(26,28,30)           119.9011         estimate D2E/DX2                !
 ! A49   A(29,28,30)           115.6943         estimate D2E/DX2                !
 ! A50   A(25,30,28)           121.5364         estimate D2E/DX2                !
 ! A51   A(25,30,31)           120.8473         estimate D2E/DX2                !
 ! A52   A(28,30,31)           117.539          estimate D2E/DX2                !
 ! A53   A(30,31,32)           126.6934         estimate D2E/DX2                !
 ! A54   A(30,31,33)           122.0292         estimate D2E/DX2                !
 ! A55   A(32,31,33)           110.9235         estimate D2E/DX2                !
 ! A56   A(31,33,34)           119.5456         estimate D2E/DX2                !
 ! A57   A(31,33,35)           120.5293         estimate D2E/DX2                !
 ! A58   A(34,33,35)           119.8896         estimate D2E/DX2                !
 ! A59   A(26,35,33)           117.1578         estimate D2E/DX2                !
 ! A60   A(26,35,37)           121.0538         estimate D2E/DX2                !
 ! A61   A(33,35,37)           121.4427         estimate D2E/DX2                !
 ! A62   A(35,37,36)           127.7045         estimate D2E/DX2                !
 ! A63   A(35,37,38)           114.4294         estimate D2E/DX2                !
 ! A64   A(36,37,38)           117.8302         estimate D2E/DX2                !
 ! A65   A(37,38,41)           123.4627         estimate D2E/DX2                !
 ! A66   A(25,39,47)           106.8442         estimate D2E/DX2                !
 ! A67   A(38,41,42)           113.4377         estimate D2E/DX2                !
 ! A68   A(38,41,43)           111.348          estimate D2E/DX2                !
 ! A69   A(38,41,44)           107.512          estimate D2E/DX2                !
 ! A70   A(42,41,43)           102.4277         estimate D2E/DX2                !
 ! A71   A(42,41,44)           111.8162         estimate D2E/DX2                !
 ! A72   A(43,41,44)           110.2985         estimate D2E/DX2                !
 ! A73   A(15,44,41)           113.9066         estimate D2E/DX2                !
 ! A74   A(15,44,45)           103.7368         estimate D2E/DX2                !
 ! A75   A(15,44,46)           108.6267         estimate D2E/DX2                !
 ! A76   A(41,44,45)           115.5656         estimate D2E/DX2                !
 ! A77   A(41,44,46)           105.4042         estimate D2E/DX2                !
 ! A78   A(45,44,46)           109.4837         estimate D2E/DX2                !
 ! A79   A(48,49,50)           112.971          estimate D2E/DX2                !
 ! A80   A(48,49,51)           103.536          estimate D2E/DX2                !
 ! A81   A(48,49,52)           106.872          estimate D2E/DX2                !
 ! A82   A(50,49,51)           119.0765         estimate D2E/DX2                !
 ! A83   A(50,49,52)           111.3842         estimate D2E/DX2                !
 ! A84   A(51,49,52)           101.7673         estimate D2E/DX2                !
 ! A85   A(49,50,53)           105.3581         estimate D2E/DX2                !
 ! A86   A(49,50,54)           116.3544         estimate D2E/DX2                !
 ! A87   A(49,50,55)           118.07           estimate D2E/DX2                !
 ! A88   A(53,50,54)           107.8695         estimate D2E/DX2                !
 ! A89   A(53,50,55)           103.1556         estimate D2E/DX2                !
 ! A90   A(54,50,55)           104.9081         estimate D2E/DX2                !
 ! A91   A(50,55,56)           113.7326         estimate D2E/DX2                !
 ! A92   A(50,55,57)           100.5731         estimate D2E/DX2                !
 ! A93   A(50,55,60)           114.2048         estimate D2E/DX2                !
 ! A94   A(56,55,57)           105.8164         estimate D2E/DX2                !
 ! A95   A(56,55,60)           115.4207         estimate D2E/DX2                !
 ! A96   A(57,55,60)           105.0935         estimate D2E/DX2                !
 ! A97   A(55,56,58)           109.8894         estimate D2E/DX2                !
 ! A98   A(55,56,59)           106.488          estimate D2E/DX2                !
 ! A99   A(55,56,72)           112.458          estimate D2E/DX2                !
 ! A100  A(58,56,59)            97.1849         estimate D2E/DX2                !
 ! A101  A(58,56,72)           115.232          estimate D2E/DX2                !
 ! A102  A(59,56,72)           114.3386         estimate D2E/DX2                !
 ! A103  A(55,60,61)           103.183          estimate D2E/DX2                !
 ! A104  A(55,60,62)           132.7856         estimate D2E/DX2                !
 ! A105  A(61,60,62)           123.9112         estimate D2E/DX2                !
 ! A106  A(60,61,63)           123.3864         estimate D2E/DX2                !
 ! A107  A(61,63,64)           114.0318         estimate D2E/DX2                !
 ! A108  A(61,63,65)           115.0968         estimate D2E/DX2                !
 ! A109  A(61,63,67)           105.7827         estimate D2E/DX2                !
 ! A110  A(64,63,65)           106.8266         estimate D2E/DX2                !
 ! A111  A(64,63,67)           107.6093         estimate D2E/DX2                !
 ! A112  A(65,63,67)           107.0629         estimate D2E/DX2                !
 ! A113  A(12,65,63)           130.7504         estimate D2E/DX2                !
 ! A114  A(67,66,68)           123.1192         estimate D2E/DX2                !
 ! A115  A(67,66,69)           115.782          estimate D2E/DX2                !
 ! A116  A(68,66,69)           120.0785         estimate D2E/DX2                !
 ! A117  A(68,66,71)           105.479          estimate D2E/DX2                !
 ! A118  A(69,66,71)           114.56           estimate D2E/DX2                !
 ! A119  A(63,67,66)           121.2582         estimate D2E/DX2                !
 ! A120  A(63,67,70)           113.7308         estimate D2E/DX2                !
 ! A121  A(63,67,71)           119.4438         estimate D2E/DX2                !
 ! A122  A(66,67,70)           122.7908         estimate D2E/DX2                !
 ! A123  A(70,67,71)           106.8947         estimate D2E/DX2                !
 ! A124  A(18,69,66)           102.0513         estimate D2E/DX2                !
 ! A125  A(56,72,73)           113.1217         estimate D2E/DX2                !
 ! A126  A(56,72,74)           106.6215         estimate D2E/DX2                !
 ! A127  A(56,72,75)           110.0917         estimate D2E/DX2                !
 ! A128  A(73,72,74)           116.8938         estimate D2E/DX2                !
 ! A129  A(73,72,75)           104.6314         estimate D2E/DX2                !
 ! A130  A(74,72,75)           105.0995         estimate D2E/DX2                !
 ! A131  L(17,18,69,8,-1)      173.6953         estimate D2E/DX2                !
 ! A132  L(17,18,69,8,-2)      183.6856         estimate D2E/DX2                !
 ! D1    D(15,1,6,4)          -159.8065         estimate D2E/DX2                !
 ! D2    D(15,1,6,7)            17.7722         estimate D2E/DX2                !
 ! D3    D(16,1,6,4)            11.6316         estimate D2E/DX2                !
 ! D4    D(16,1,6,7)          -170.7898         estimate D2E/DX2                !
 ! D5    D(6,1,15,44)          178.3715         estimate D2E/DX2                !
 ! D6    D(16,1,15,44)           6.4659         estimate D2E/DX2                !
 ! D7    D(3,2,4,5)             -7.6573         estimate D2E/DX2                !
 ! D8    D(3,2,4,6)            179.5803         estimate D2E/DX2                !
 ! D9    D(11,2,4,5)           163.9313         estimate D2E/DX2                !
 ! D10   D(11,2,4,6)            -8.831          estimate D2E/DX2                !
 ! D11   D(3,2,11,9)           179.9692         estimate D2E/DX2                !
 ! D12   D(3,2,11,13)            7.4339         estimate D2E/DX2                !
 ! D13   D(4,2,11,9)             8.3426         estimate D2E/DX2                !
 ! D14   D(4,2,11,13)         -164.1927         estimate D2E/DX2                !
 ! D15   D(2,4,6,1)           -178.7191         estimate D2E/DX2                !
 ! D16   D(2,4,6,7)              3.6424         estimate D2E/DX2                !
 ! D17   D(5,4,6,1)              8.4197         estimate D2E/DX2                !
 ! D18   D(5,4,6,7)           -169.2189         estimate D2E/DX2                !
 ! D19   D(1,6,7,8)             -1.9499         estimate D2E/DX2                !
 ! D20   D(1,6,7,9)           -177.034          estimate D2E/DX2                !
 ! D21   D(4,6,7,8)            175.8279         estimate D2E/DX2                !
 ! D22   D(4,6,7,9)              0.7438         estimate D2E/DX2                !
 ! D23   D(6,7,9,10)           170.3143         estimate D2E/DX2                !
 ! D24   D(6,7,9,11)            -0.7499         estimate D2E/DX2                !
 ! D25   D(8,7,9,10)            -5.1193         estimate D2E/DX2                !
 ! D26   D(8,7,9,11)          -176.1836         estimate D2E/DX2                !
 ! D27   D(7,9,11,2)            -3.5635         estimate D2E/DX2                !
 ! D28   D(7,9,11,13)          169.3368         estimate D2E/DX2                !
 ! D29   D(10,9,11,2)         -174.5373         estimate D2E/DX2                !
 ! D30   D(10,9,11,13)          -1.6371         estimate D2E/DX2                !
 ! D31   D(2,11,13,12)         172.9041         estimate D2E/DX2                !
 ! D32   D(2,11,13,14)         -13.0568         estimate D2E/DX2                !
 ! D33   D(9,11,13,12)           0.7325         estimate D2E/DX2                !
 ! D34   D(9,11,13,14)         174.7716         estimate D2E/DX2                !
 ! D35   D(65,12,13,11)       -160.7739         estimate D2E/DX2                !
 ! D36   D(65,12,13,14)         25.9888         estimate D2E/DX2                !
 ! D37   D(13,12,65,63)         89.9335         estimate D2E/DX2                !
 ! D38   D(11,13,14,17)       -164.4716         estimate D2E/DX2                !
 ! D39   D(12,13,14,17)          9.9481         estimate D2E/DX2                !
 ! D40   D(13,14,17,18)        -68.2479         estimate D2E/DX2                !
 ! D41   D(13,14,17,19)         52.7376         estimate D2E/DX2                !
 ! D42   D(13,14,17,20)        174.4826         estimate D2E/DX2                !
 ! D43   D(1,15,44,41)         -72.2425         estimate D2E/DX2                !
 ! D44   D(1,15,44,45)          54.2204         estimate D2E/DX2                !
 ! D45   D(1,15,44,46)         170.6267         estimate D2E/DX2                !
 ! D46   D(14,17,69,66)         24.9353         estimate D2E/DX2                !
 ! D47   D(19,17,69,66)        -96.2846         estimate D2E/DX2                !
 ! D48   D(20,17,69,66)        142.7592         estimate D2E/DX2                !
 ! D49   D(14,17,20,21)        -72.1065         estimate D2E/DX2                !
 ! D50   D(14,17,20,22)        175.8507         estimate D2E/DX2                !
 ! D51   D(14,17,20,23)         57.2089         estimate D2E/DX2                !
 ! D52   D(18,17,20,21)        171.1679         estimate D2E/DX2                !
 ! D53   D(18,17,20,22)         59.1251         estimate D2E/DX2                !
 ! D54   D(18,17,20,23)        -59.5167         estimate D2E/DX2                !
 ! D55   D(19,17,20,21)         52.3275         estimate D2E/DX2                !
 ! D56   D(19,17,20,22)        -59.7153         estimate D2E/DX2                !
 ! D57   D(19,17,20,23)       -178.3571         estimate D2E/DX2                !
 ! D58   D(17,20,23,24)        175.2015         estimate D2E/DX2                !
 ! D59   D(21,20,23,24)        -56.8233         estimate D2E/DX2                !
 ! D60   D(22,20,23,24)         57.4788         estimate D2E/DX2                !
 ! D61   D(39,25,30,28)        165.0279         estimate D2E/DX2                !
 ! D62   D(39,25,30,31)        -11.6983         estimate D2E/DX2                !
 ! D63   D(40,25,30,28)        -14.0128         estimate D2E/DX2                !
 ! D64   D(40,25,30,31)        169.261          estimate D2E/DX2                !
 ! D65   D(30,25,39,47)       -177.5461         estimate D2E/DX2                !
 ! D66   D(40,25,39,47)          1.5719         estimate D2E/DX2                !
 ! D67   D(27,26,28,29)         12.189          estimate D2E/DX2                !
 ! D68   D(27,26,28,30)        176.973          estimate D2E/DX2                !
 ! D69   D(35,26,28,29)       -165.3921         estimate D2E/DX2                !
 ! D70   D(35,26,28,30)         -0.608          estimate D2E/DX2                !
 ! D71   D(27,26,35,33)       -179.3957         estimate D2E/DX2                !
 ! D72   D(27,26,35,37)          7.2605         estimate D2E/DX2                !
 ! D73   D(28,26,35,33)         -1.9639         estimate D2E/DX2                !
 ! D74   D(28,26,35,37)       -175.3078         estimate D2E/DX2                !
 ! D75   D(26,28,30,25)       -174.3112         estimate D2E/DX2                !
 ! D76   D(26,28,30,31)          2.5191         estimate D2E/DX2                !
 ! D77   D(29,28,30,25)         -8.4877         estimate D2E/DX2                !
 ! D78   D(29,28,30,31)        168.3426         estimate D2E/DX2                !
 ! D79   D(25,30,31,32)          2.4076         estimate D2E/DX2                !
 ! D80   D(25,30,31,33)        174.9424         estimate D2E/DX2                !
 ! D81   D(28,30,31,32)       -174.4458         estimate D2E/DX2                !
 ! D82   D(28,30,31,33)         -1.911          estimate D2E/DX2                !
 ! D83   D(30,31,33,34)        177.1523         estimate D2E/DX2                !
 ! D84   D(30,31,33,35)         -0.6772         estimate D2E/DX2                !
 ! D85   D(32,31,33,34)         -9.2514         estimate D2E/DX2                !
 ! D86   D(32,31,33,35)        172.9191         estimate D2E/DX2                !
 ! D87   D(31,33,35,26)          2.5757         estimate D2E/DX2                !
 ! D88   D(31,33,35,37)        175.8919         estimate D2E/DX2                !
 ! D89   D(34,33,35,26)       -175.2463         estimate D2E/DX2                !
 ! D90   D(34,33,35,37)         -1.9301         estimate D2E/DX2                !
 ! D91   D(26,35,37,36)        167.3758         estimate D2E/DX2                !
 ! D92   D(26,35,37,38)        -10.3753         estimate D2E/DX2                !
 ! D93   D(33,35,37,36)         -5.6812         estimate D2E/DX2                !
 ! D94   D(33,35,37,38)        176.5677         estimate D2E/DX2                !
 ! D95   D(35,37,38,41)        176.6225         estimate D2E/DX2                !
 ! D96   D(36,37,38,41)         -1.3657         estimate D2E/DX2                !
 ! D97   D(37,38,41,42)         89.8775         estimate D2E/DX2                !
 ! D98   D(37,38,41,43)        -25.038          estimate D2E/DX2                !
 ! D99   D(37,38,41,44)       -145.9614         estimate D2E/DX2                !
 ! D100  D(38,41,44,15)        -60.0955         estimate D2E/DX2                !
 ! D101  D(38,41,44,45)        179.9049         estimate D2E/DX2                !
 ! D102  D(38,41,44,46)         58.8859         estimate D2E/DX2                !
 ! D103  D(42,41,44,15)         65.0436         estimate D2E/DX2                !
 ! D104  D(42,41,44,45)        -54.956          estimate D2E/DX2                !
 ! D105  D(42,41,44,46)       -175.975          estimate D2E/DX2                !
 ! D106  D(43,41,44,15)        178.3234         estimate D2E/DX2                !
 ! D107  D(43,41,44,45)         58.3238         estimate D2E/DX2                !
 ! D108  D(43,41,44,46)        -62.6952         estimate D2E/DX2                !
 ! D109  D(48,49,50,53)       -165.1727         estimate D2E/DX2                !
 ! D110  D(48,49,50,54)         75.4082         estimate D2E/DX2                !
 ! D111  D(48,49,50,55)        -50.7189         estimate D2E/DX2                !
 ! D112  D(51,49,50,53)         73.0531         estimate D2E/DX2                !
 ! D113  D(51,49,50,54)        -46.366          estimate D2E/DX2                !
 ! D114  D(51,49,50,55)       -172.4931         estimate D2E/DX2                !
 ! D115  D(52,49,50,53)        -44.8733         estimate D2E/DX2                !
 ! D116  D(52,49,50,54)       -164.2924         estimate D2E/DX2                !
 ! D117  D(52,49,50,55)         69.5805         estimate D2E/DX2                !
 ! D118  D(49,50,55,56)       -167.6783         estimate D2E/DX2                !
 ! D119  D(49,50,55,57)        -55.0383         estimate D2E/DX2                !
 ! D120  D(49,50,55,60)         56.9447         estimate D2E/DX2                !
 ! D121  D(53,50,55,56)        -52.0271         estimate D2E/DX2                !
 ! D122  D(53,50,55,57)         60.6129         estimate D2E/DX2                !
 ! D123  D(53,50,55,60)        172.5959         estimate D2E/DX2                !
 ! D124  D(54,50,55,56)         60.8231         estimate D2E/DX2                !
 ! D125  D(54,50,55,57)        173.4632         estimate D2E/DX2                !
 ! D126  D(54,50,55,60)        -74.5538         estimate D2E/DX2                !
 ! D127  D(50,55,56,58)        161.2701         estimate D2E/DX2                !
 ! D128  D(50,55,56,59)         57.0415         estimate D2E/DX2                !
 ! D129  D(50,55,56,72)        -68.9326         estimate D2E/DX2                !
 ! D130  D(57,55,56,58)         51.827          estimate D2E/DX2                !
 ! D131  D(57,55,56,59)        -52.4016         estimate D2E/DX2                !
 ! D132  D(57,55,56,72)       -178.3758         estimate D2E/DX2                !
 ! D133  D(60,55,56,58)        -63.9132         estimate D2E/DX2                !
 ! D134  D(60,55,56,59)       -168.1418         estimate D2E/DX2                !
 ! D135  D(60,55,56,72)         65.884          estimate D2E/DX2                !
 ! D136  D(50,55,60,61)        163.7881         estimate D2E/DX2                !
 ! D137  D(50,55,60,62)        -12.2122         estimate D2E/DX2                !
 ! D138  D(56,55,60,61)         29.1835         estimate D2E/DX2                !
 ! D139  D(56,55,60,62)       -146.8168         estimate D2E/DX2                !
 ! D140  D(57,55,60,61)        -86.9675         estimate D2E/DX2                !
 ! D141  D(57,55,60,62)         97.0322         estimate D2E/DX2                !
 ! D142  D(55,56,72,73)        -44.7366         estimate D2E/DX2                !
 ! D143  D(55,56,72,74)       -174.5849         estimate D2E/DX2                !
 ! D144  D(55,56,72,75)         71.9202         estimate D2E/DX2                !
 ! D145  D(58,56,72,73)         82.2583         estimate D2E/DX2                !
 ! D146  D(58,56,72,74)        -47.59           estimate D2E/DX2                !
 ! D147  D(58,56,72,75)       -161.0849         estimate D2E/DX2                !
 ! D148  D(59,56,72,73)       -166.3398         estimate D2E/DX2                !
 ! D149  D(59,56,72,74)         63.8119         estimate D2E/DX2                !
 ! D150  D(59,56,72,75)        -49.683          estimate D2E/DX2                !
 ! D151  D(55,60,61,63)        174.8305         estimate D2E/DX2                !
 ! D152  D(62,60,61,63)         -8.706          estimate D2E/DX2                !
 ! D153  D(60,61,63,64)         59.8681         estimate D2E/DX2                !
 ! D154  D(60,61,63,65)        -64.1069         estimate D2E/DX2                !
 ! D155  D(60,61,63,67)        177.9182         estimate D2E/DX2                !
 ! D156  D(61,63,65,12)       -134.3378         estimate D2E/DX2                !
 ! D157  D(64,63,65,12)         97.9672         estimate D2E/DX2                !
 ! D158  D(67,63,65,12)        -17.0843         estimate D2E/DX2                !
 ! D159  D(61,63,67,66)         44.0792         estimate D2E/DX2                !
 ! D160  D(61,63,67,70)       -152.4037         estimate D2E/DX2                !
 ! D161  D(61,63,67,71)        -24.6193         estimate D2E/DX2                !
 ! D162  D(64,63,67,66)        166.3359         estimate D2E/DX2                !
 ! D163  D(64,63,67,70)        -30.147          estimate D2E/DX2                !
 ! D164  D(64,63,67,71)         97.6374         estimate D2E/DX2                !
 ! D165  D(65,63,67,66)        -79.1379         estimate D2E/DX2                !
 ! D166  D(65,63,67,70)         84.3793         estimate D2E/DX2                !
 ! D167  D(65,63,67,71)       -147.8364         estimate D2E/DX2                !
 ! D168  D(68,66,67,63)        164.7329         estimate D2E/DX2                !
 ! D169  D(68,66,67,70)          2.7302         estimate D2E/DX2                !
 ! D170  D(69,66,67,63)         -3.6953         estimate D2E/DX2                !
 ! D171  D(69,66,67,70)       -165.698          estimate D2E/DX2                !
 ! D172  D(67,66,69,18)         81.5936         estimate D2E/DX2                !
 ! D173  D(68,66,69,18)        -87.2113         estimate D2E/DX2                !
 ! D174  D(71,66,69,18)        145.6479         estimate D2E/DX2                !
 --------------------------------------------------------------------------------
 Trust Radius=3.00D-01 FncErr=1.00D-07 GrdErr=1.00D-06 EigMax=2.50D+02 EigMin=1.00D-04
 Number of steps in this run=    394 maximum allowed number of steps=    450.
 GradGradGradGradGradGradGradGradGradGradGradGradGradGradGradGradGradGrad

 Leave Link  103 at Wed Jan 18 03:20:07 2023, MaxMem=   262144000 cpu:               0.1 elap:               0.0
 (Enter /dragofs/sw/campus/0.2/software/gaussian/16.gaussian/gaussian/g16_legacy/l202.exe)
 Stoichiometry    C29H34O12
 Framework group  C1[X(C29H34O12)]
 Deg. of freedom   219
 Full point group                 C1      NOp   1
 Largest Abelian subgroup         C1      NOp   1
 Largest concise Abelian subgroup C1      NOp   1
                         Standard orientation:                         
 ---------------------------------------------------------------------
 Center     Atomic      Atomic             Coordinates (Angstroms)
 Number     Number       Type             X           Y           Z
 ---------------------------------------------------------------------
      1          6           0        4.349863   -3.598285   -0.343850
      2          6           0        0.586772   -3.763413    0.538080
      3          1           0       -0.039163   -4.153448    1.396372
      4          6           0        1.959366   -3.896054    0.633393
      5          1           0        2.421973   -4.260963    1.600029
      6          6           0        2.796298   -3.458757   -0.364864
      7          6           0        2.182459   -2.797952   -1.450851
      8          1           0        2.732529   -2.346354   -2.271947
      9          6           0        0.764581   -2.607349   -1.450823
     10          1           0        0.341015   -1.966041   -2.205362
     11          6           0       -0.050264   -3.065458   -0.417780
     12          8           0       -2.069840   -1.926164   -1.094600
     13          6           0       -1.470434   -2.640882   -0.346232
     14          8           0       -2.072050   -3.321447    0.686746
     15          8           0        4.840465   -2.682268   -1.229234
     16          8           0        5.036267   -4.250915    0.407066
     17          6           0       -3.504072   -3.324738    0.720127
     18          1           0       -3.825148   -2.277878    0.949168
     19          1           0       -3.943627   -3.649777   -0.208559
     20          6           0       -4.019009   -4.211454    1.817820
     21          1           0       -3.864203   -5.299812    1.558360
     22          1           0       -5.090912   -4.097835    1.818974
     23          8           0       -3.537265   -3.862740    3.128760
     24          1           0       -4.048730   -4.501767    3.695775
     25          6           0        4.053880    5.436265    0.187110
     26          6           0        4.996883    1.831276   -0.295022
     27          1           0        4.466161    0.911291   -0.679747
     28          6           0        4.274521    3.012911   -0.373487
     29          1           0        3.167305    3.039300   -0.600370
     30          6           0        4.822945    4.208561    0.139681
     31          6           0        6.111653    4.152780    0.663545
     32          1           0        6.647470    4.962812    1.174132
     33          6           0        6.839131    2.953388    0.725321
     34          1           0        7.819277    2.963709    1.084635
     35          6           0        6.279056    1.761492    0.269662
     36          8           0        8.265754    0.332608    0.498405
     37          6           0        7.069742    0.484604    0.241404
     38          8           0        6.389136   -0.565488   -0.145022
     39          8           0        4.577206    6.371442    0.964455
     40          8           0        3.006972    5.659993   -0.389205
     41          6           0        6.968661   -1.866388   -0.309765
     42          1           0        6.934285   -2.492362    0.622804
     43          1           0        8.055754   -1.800825   -0.512971
     44          6           0        6.278176   -2.519601   -1.432364
     45          1           0        6.638914   -3.578585   -1.686800
     46          1           0        6.438741   -1.857810   -2.300130
     47          1           0        3.957204    7.133169    0.950220
     48          1           0       -9.519712    0.006835   -1.899885
     49          6           0      -10.087813    0.424583   -1.023378
     50          6           0       -9.329647    1.583273   -0.302216
     51          1           0      -11.069624    0.611760   -1.425324
     52          1           0      -10.293626   -0.466196   -0.297341
     53          1           0       -9.854364    1.713290    0.686771
     54          1           0       -9.326533    2.570351   -0.820143
     55          6           0       -7.826099    1.339832    0.117705
     56          6           0       -7.252819    2.440663    1.101893
     57          1           0       -7.931626    0.411978    0.727697
     58          1           0       -6.343981    2.051485    1.618625
     59          1           0       -7.914199    2.450869    1.976698
     60          6           0       -6.933491    0.963617   -1.006842
     61          8           0       -5.718148    1.167304   -0.510221
     62          8           0       -7.144507    0.627235   -2.128680
     63          6           0       -4.503952    0.830828   -1.216922
     64          1           0       -4.384886    1.363165   -2.206419
     65          1           0       -4.356440   -0.271295   -1.418552
     66          6           0       -3.402011    0.984894    1.195641
     67          6           0       -3.380424    1.269356   -0.328290
     68          1           0       -2.480237    1.069183    1.856708
     69          1           0       -4.301840    0.510538    1.574704
     70          1           0       -2.433274    1.536318   -0.889105
     71          8           0       -3.607735    2.323080    0.639789
     72          6           0       -7.085407    3.794583    0.426043
     73          1           0       -6.620065    3.725583   -0.576678
     74          1           0       -6.605701    4.438606    1.141844
     75          1           0       -8.034056    4.234144    0.251317
 ---------------------------------------------------------------------
 Rotational constants (GHZ):           0.0839817           0.0295118           0.0230848
 Leave Link  202 at Wed Jan 18 03:20:07 2023, MaxMem=   262144000 cpu:               0.0 elap:               0.0
 (Enter /dragofs/sw/campus/0.2/software/gaussian/16.gaussian/gaussian/g16_legacy/l301.exe)
 Standard basis: 6-31G(d,p) (6D, 7F)
 Ernie: Thresh=  0.10000D-02 Tol=  0.10000D-05 Strict=F.
 There are   785 symmetry adapted cartesian basis functions of A   symmetry.
 There are   785 symmetry adapted basis functions of A   symmetry.
   785 basis functions,  1386 primitive gaussians,   785 cartesian basis functions
   152 alpha electrons      152 beta electrons
       nuclear repulsion energy      4356.6171705498 Hartrees.
 IExCor=  402 DFT=T Ex=B Corr=LYP ExCW=0 ScaHFX=  0.000000
 ScaDFX=  1.000000  1.000000  1.000000  1.000000 ScalE2=  1.000000  1.000000
 IRadAn=      5 IRanWt=     -1 IRanGd=            0 ICorTp=0 IEmpDi=131
 NAtoms=   75 NActive=   75 NUniq=   75 SFac= 1.00D+00 NAtFMM=   60 NAOKFM=T Big=T
 Integral buffers will be    131072 words long.
 Raffenetti 2 integral format.
 Two-electron integral symmetry is turned on.
 R6Disp:  Grimme-D3 Dispersion energy=       -0.0897273804 Hartrees.
 Nuclear repulsion after empirical dispersion term =     4356.5274431694 Hartrees.
 Leave Link  301 at Wed Jan 18 03:20:07 2023, MaxMem=   262144000 cpu:               0.4 elap:               0.1
 (Enter /dragofs/sw/campus/0.2/software/gaussian/16.gaussian/gaussian/g16_legacy/l302.exe)
 NPDir=0 NMtPBC=     1 NCelOv=     1 NCel=       1 NClECP=     1 NCelD=      1
         NCelK=      1 NCelE2=     1 NClLst=     1 CellRange=     0.0.
 One-electron integrals computed using PRISM.
 One-electron integral symmetry used in STVInt
 NBasis=   785 RedAO= T EigKep=  4.08D-04  NBF=   785
 NBsUse=   785 1.00D-06 EigRej= -1.00D+00 NBFU=   785
 Precomputing XC quadrature grid using
 IXCGrd= 4 IRadAn=           5 IRanWt=          -1 IRanGd=           0 AccXCQ= 0.00D+00.
 Generated NRdTot=       0 NPtTot=           0 NUsed=           0 NTot=          32
 NSgBfM=   697   694   694   694   697 MxSgAt=    75 MxSgA2=    75.
 Leave Link  302 at Wed Jan 18 03:20:09 2023, MaxMem=   262144000 cpu:              14.3 elap:               1.8
 (Enter /dragofs/sw/campus/0.2/software/gaussian/16.gaussian/gaussian/g16_legacy/l303.exe)
 DipDrv:  MaxL=1.
 Leave Link  303 at Wed Jan 18 03:20:09 2023, MaxMem=   262144000 cpu:               0.5 elap:               0.1
 (Enter /dragofs/sw/campus/0.2/software/gaussian/16.gaussian/gaussian/g16_legacy/l401.exe)
 ExpMin= 1.61D-01 ExpMax= 5.48D+03 ExpMxC= 8.25D+02 IAcc=3 IRadAn=         5 AccDes= 0.00D+00
 Harris functional with IExCor=  402 and IRadAn=       5 diagonalized for initial guess.
 HarFok:  IExCor=  402 AccDes= 0.00D+00 IRadAn=         5 IDoV= 1 UseB2=F ITyADJ=14
 ICtDFT=  3500011 ScaDFX=  1.000000  1.000000  1.000000  1.000000
 FoFCou: FMM=F IPFlag=           0 FMFlag=      100000 FMFlg1=        2001
         NFxFlg=           0 DoJE=T BraDBF=F KetDBF=T FulRan=T
         wScrn=  0.000000 ICntrl=       500 IOpCl=  0 I1Cent=   200000004 NGrid=           0
         NMat0=    1 NMatS0=      1 NMatT0=    0 NMatD0=    1 NMtDS0=    0 NMtDT0=    0
 Petite list used in FoFCou.
 Harris En= -2028.33481018007    
 JPrj=0 DoOrth=F DoCkMO=F.
 Leave Link  401 at Wed Jan 18 03:20:15 2023, MaxMem=   262144000 cpu:              47.4 elap:               6.0
 (Enter /dragofs/sw/campus/0.2/software/gaussian/16.gaussian/gaussian/g16_legacy/l502.exe)
 Integral symmetry usage will be decided dynamically.
 Closed shell SCF:
 Using DIIS extrapolation, IDIIS=  1040.
 NGot=   262144000 LenX=   260897012 LenY=   260280002
 Requested convergence on RMS density matrix=1.00D-08 within 128 cycles.
 Requested convergence on MAX density matrix=1.00D-06.
 Requested convergence on             energy=1.00D-06.
 No special actions if energy rises.
 Fock matrices will be formed incrementally for  20 cycles.
 Integral accuracy reduced to 1.0D-05 until final iterations.

 Cycle   1  Pass 0  IDiag  1:
 FoFJK:  IHMeth= 1 ICntrl=     500 DoSepK=F KAlg= 0 I1Cent=           0 FoldK=F
 IRaf= 560000000 NMat=       1 IRICut=       1 DoRegI=T DoRafI=F ISym2E= 0 IDoP0=0 IntGTp=1.
 FoFCou: FMM=T IPFlag=           0 FMFlag=      100000 FMFlg1=        2001
         NFxFlg=           0 DoJE=T BraDBF=F KetDBF=F FulRan=T
         wScrn=  0.000000 ICntrl=       500 IOpCl=  0 I1Cent=           0 NGrid=           0
         NMat0=    1 NMatS0=      1 NMatT0=    0 NMatD0=    1 NMtDS0=    0 NMtDT0=    0
 Symmetry not used in FoFCou.
 FMM levels:  10  Number of levels for PrismC:   9
 E= -2026.65778090793    
 DIIS: error= 3.16D-02 at cycle   1 NSaved=   1.
 NSaved= 1 IEnMin= 1 EnMin= -2026.65778090793     IErMin= 1 ErrMin= 3.16D-02
 ErrMax= 3.16D-02  0.00D+00 EMaxC= 1.00D-01 BMatC= 1.04D+00 BMatP= 1.04D+00
 IDIUse=3 WtCom= 6.84D-01 WtEn= 3.16D-01
 Coeff-Com:  0.100D+01
 Coeff-En:   0.100D+01
 Coeff:      0.100D+01
 Gap=     0.044 Goal=   None    Shift=    0.000
 GapD=    0.044 DampG=0.250 DampE=0.500 DampFc=0.2500 IDamp=-1.
 Damping current iteration by 2.50D-01
 RMSDP=3.95D-03 MaxDP=2.67D-01              OVMax= 3.85D-01

 Cycle   2  Pass 0  IDiag  1:
 RMSU=  9.85D-04    CP:  9.94D-01
 E= -2026.97299950459     Delta-E=       -0.315218596664 Rises=F Damp=T
 DIIS: error= 1.61D-02 at cycle   2 NSaved=   2.
 NSaved= 2 IEnMin= 2 EnMin= -2026.97299950459     IErMin= 2 ErrMin= 1.61D-02
 ErrMax= 1.61D-02  0.00D+00 EMaxC= 1.00D-01 BMatC= 1.41D-01 BMatP= 1.04D+00
 IDIUse=3 WtCom= 8.39D-01 WtEn= 1.61D-01
 Coeff-Com: -0.276D+00 0.128D+01
 Coeff-En:   0.276D-01 0.972D+00
 Coeff:     -0.227D+00 0.123D+01
 Gap=     0.113 Goal=   None    Shift=    0.000
 RMSDP=1.18D-03 MaxDP=7.06D-02 DE=-3.15D-01 OVMax= 2.94D-01

 Cycle   3  Pass 0  IDiag  1:
 RMSU=  1.14D-03    CP:  9.86D-01  1.27D+00
 E= -2027.29538468543     Delta-E=       -0.322385180837 Rises=F Damp=F
 DIIS: error= 2.59D-02 at cycle   3 NSaved=   3.
 NSaved= 3 IEnMin= 3 EnMin= -2027.29538468543     IErMin= 2 ErrMin= 1.61D-02
 ErrMax= 2.59D-02  0.00D+00 EMaxC= 1.00D-01 BMatC= 3.60D-01 BMatP= 1.41D-01
 IDIUse=2 WtCom= 0.00D+00 WtEn= 1.00D+00
 EnCoef did     8 forward-backward iterations
 Coeff-En:   0.227D-01 0.114D+00 0.864D+00
 Coeff:      0.227D-01 0.114D+00 0.864D+00
 Gap=     0.071 Goal=   None    Shift=    0.000
 RMSDP=2.66D-03 MaxDP=2.49D-01 DE=-3.22D-01 OVMax= 5.23D-01

 Cycle   4  Pass 0  IDiag  1:
 RMSU=  1.10D-03    CP:  9.93D-01  2.25D+00 -9.46D-01
 E= -2025.16455128144     Delta-E=        2.130833403995 Rises=F Damp=F
 DIIS: error= 6.57D-02 at cycle   4 NSaved=   4.
 NSaved= 4 IEnMin= 3 EnMin= -2027.29538468543     IErMin= 2 ErrMin= 1.61D-02
 ErrMax= 6.57D-02  0.00D+00 EMaxC= 1.00D-01 BMatC= 2.93D+00 BMatP= 1.41D-01
 IDIUse=2 WtCom= 0.00D+00 WtEn= 1.00D+00
 Coeff-En:   0.000D+00 0.000D+00 0.815D+00 0.185D+00
 Coeff:      0.000D+00 0.000D+00 0.815D+00 0.185D+00
 Gap=     0.094 Goal=   None    Shift=    0.000
 RMSDP=1.56D-03 MaxDP=1.44D-01 DE= 2.13D+00 OVMax= 3.08D-01

 Cycle   5  Pass 0  IDiag  1:
 RMSU=  3.41D-04    CP:  9.94D-01  1.33D+00 -4.57D-02  3.95D-01
 E= -2027.39800306716     Delta-E=       -2.233451785719 Rises=F Damp=F
 DIIS: error= 2.07D-02 at cycle   5 NSaved=   5.
 NSaved= 5 IEnMin= 5 EnMin= -2027.39800306716     IErMin= 2 ErrMin= 1.61D-02
 ErrMax= 2.07D-02  0.00D+00 EMaxC= 1.00D-01 BMatC= 2.54D-01 BMatP= 1.41D-01
 IDIUse=2 WtCom= 0.00D+00 WtEn= 1.00D+00
 Coeff-En:   0.000D+00 0.000D+00 0.432D+00 0.000D+00 0.568D+00
 Coeff:      0.000D+00 0.000D+00 0.432D+00 0.000D+00 0.568D+00
 Gap=     0.105 Goal=   None    Shift=    0.000
 RMSDP=6.64D-04 MaxDP=5.27D-02 DE=-2.23D+00 OVMax= 1.06D-01

 Cycle   6  Pass 0  IDiag  1:
 RMSU=  1.80D-04    CP:  9.90D-01  1.35D+00  4.42D-01  1.55D-01  5.20D-01
 E= -2027.60155190305     Delta-E=       -0.203548835899 Rises=F Damp=F
 DIIS: error= 2.99D-03 at cycle   6 NSaved=   6.
 NSaved= 6 IEnMin= 6 EnMin= -2027.60155190305     IErMin= 6 ErrMin= 2.99D-03
 ErrMax= 2.99D-03  0.00D+00 EMaxC= 1.00D-01 BMatC= 1.62D-02 BMatP= 1.41D-01
 IDIUse=3 WtCom= 9.70D-01 WtEn= 2.99D-02
 Coeff-Com: -0.468D-01 0.881D-01 0.244D+00-0.403D-01 0.426D+00 0.330D+00
 Coeff-En:   0.000D+00 0.000D+00 0.000D+00 0.000D+00 0.404D-02 0.996D+00
 Coeff:     -0.454D-01 0.855D-01 0.236D+00-0.391D-01 0.413D+00 0.350D+00
 Gap=     0.103 Goal=   None    Shift=    0.000
 RMSDP=1.50D-04 MaxDP=1.39D-02 DE=-2.04D-01 OVMax= 2.17D-02

 Cycle   7  Pass 0  IDiag  1:
 RMSU=  5.50D-05    CP:  9.91D-01  1.32D+00  3.94D-01  1.98D-01  6.29D-01
                    CP:  3.94D-01
 E= -2027.61342537314     Delta-E=       -0.011873470085 Rises=F Damp=F
 DIIS: error= 1.05D-03 at cycle   7 NSaved=   7.
 NSaved= 7 IEnMin= 7 EnMin= -2027.61342537314     IErMin= 7 ErrMin= 1.05D-03
 ErrMax= 1.05D-03  0.00D+00 EMaxC= 1.00D-01 BMatC= 8.82D-04 BMatP= 1.62D-02
 IDIUse=3 WtCom= 9.90D-01 WtEn= 1.05D-02
 Coeff-Com: -0.247D-01 0.458D-01 0.118D+00-0.266D-01 0.220D+00 0.219D+00
 Coeff-Com:  0.449D+00
 Coeff-En:   0.000D+00 0.000D+00 0.000D+00 0.000D+00 0.000D+00 0.000D+00
 Coeff-En:   0.100D+01
 Coeff:     -0.244D-01 0.453D-01 0.116D+00-0.263D-01 0.217D+00 0.217D+00
 Coeff:      0.455D+00
 Gap=     0.100 Goal=   None    Shift=    0.000
 RMSDP=4.01D-05 MaxDP=3.15D-03 DE=-1.19D-02 OVMax= 5.97D-03

 Cycle   8  Pass 0  IDiag  1:
 RMSU=  2.17D-05    CP:  9.91D-01  1.32D+00  4.01D-01  1.91D-01  6.33D-01
                    CP:  4.54D-01  4.59D-01
 E= -2027.61401130118     Delta-E=       -0.000585928045 Rises=F Damp=F
 DIIS: error= 6.06D-04 at cycle   8 NSaved=   8.
 NSaved= 8 IEnMin= 8 EnMin= -2027.61401130118     IErMin= 8 ErrMin= 6.06D-04
 ErrMax= 6.06D-04  0.00D+00 EMaxC= 1.00D-01 BMatC= 1.55D-04 BMatP= 8.82D-04
 IDIUse=3 WtCom= 9.94D-01 WtEn= 6.06D-03
 Coeff-Com: -0.217D-02 0.678D-02 0.259D-01-0.634D-02 0.414D-01 0.648D-01
 Coeff-Com:  0.323D+00 0.547D+00
 Coeff-En:   0.000D+00 0.000D+00 0.000D+00 0.000D+00 0.000D+00 0.000D+00
 Coeff-En:   0.124D+00 0.876D+00
 Coeff:     -0.215D-02 0.674D-02 0.257D-01-0.630D-02 0.411D-01 0.644D-01
 Coeff:      0.322D+00 0.549D+00
 Gap=     0.101 Goal=   None    Shift=    0.000
 RMSDP=1.84D-05 MaxDP=2.44D-03 DE=-5.86D-04 OVMax= 4.18D-03

 Cycle   9  Pass 0  IDiag  1:
 RMSU=  1.22D-05    CP:  9.91D-01  1.32D+00  4.04D-01  1.89D-01  6.31D-01
                    CP:  4.41D-01  5.56D-01  4.87D-01
 E= -2027.61409242233     Delta-E=       -0.000081121147 Rises=F Damp=F
 DIIS: error= 3.05D-04 at cycle   9 NSaved=   9.
 NSaved= 9 IEnMin= 9 EnMin= -2027.61409242233     IErMin= 9 ErrMin= 3.05D-04
 ErrMax= 3.05D-04  0.00D+00 EMaxC= 1.00D-01 BMatC= 5.25D-05 BMatP= 1.55D-04
 IDIUse=3 WtCom= 9.97D-01 WtEn= 3.05D-03
 Coeff-Com:  0.321D-02-0.441D-02 0.542D-02-0.122D-02 0.519D-02 0.275D-01
 Coeff-Com:  0.193D+00 0.424D+00 0.347D+00
 Coeff-En:   0.000D+00 0.000D+00 0.000D+00 0.000D+00 0.000D+00 0.000D+00
 Coeff-En:   0.000D+00 0.257D+00 0.743D+00
 Coeff:      0.320D-02-0.440D-02 0.540D-02-0.121D-02 0.517D-02 0.274D-01
 Coeff:      0.193D+00 0.424D+00 0.348D+00
 Gap=     0.101 Goal=   None    Shift=    0.000
 RMSDP=8.74D-06 MaxDP=1.13D-03 DE=-8.11D-05 OVMax= 1.70D-03

 Cycle  10  Pass 0  IDiag  1:
 RMSU=  2.89D-06    CP:  9.91D-01  1.32D+00  4.05D-01  1.90D-01  6.27D-01
                    CP:  4.46D-01  5.64D-01  5.88D-01  3.67D-01
 E= -2027.61413367375     Delta-E=       -0.000041251419 Rises=F Damp=F
 DIIS: error= 5.92D-05 at cycle  10 NSaved=  10.
 NSaved=10 IEnMin=10 EnMin= -2027.61413367375     IErMin=10 ErrMin= 5.92D-05
 ErrMax= 5.92D-05  0.00D+00 EMaxC= 1.00D-01 BMatC= 1.75D-06 BMatP= 5.25D-05
 IDIUse=1 WtCom= 1.00D+00 WtEn= 0.00D+00
 Coeff-Com:  0.228D-02-0.332D-02 0.218D-02-0.418D-03 0.117D-02 0.139D-01
 Coeff-Com:  0.103D+00 0.233D+00 0.222D+00 0.427D+00
 Coeff:      0.228D-02-0.332D-02 0.218D-02-0.418D-03 0.117D-02 0.139D-01
 Coeff:      0.103D+00 0.233D+00 0.222D+00 0.427D+00
 Gap=     0.101 Goal=   None    Shift=    0.000
 RMSDP=2.02D-06 MaxDP=1.83D-04 DE=-4.13D-05 OVMax= 2.41D-04

 Initial convergence to 1.0D-05 achieved.  Increase integral accuracy.
 Cycle  11  Pass 1  IDiag  1:
 E= -2027.61409635853     Delta-E=        0.000037315219 Rises=F Damp=F
 DIIS: error= 1.74D-04 at cycle   1 NSaved=   1.
 NSaved= 1 IEnMin= 1 EnMin= -2027.61409635853     IErMin= 1 ErrMin= 1.74D-04
 ErrMax= 1.74D-04  0.00D+00 EMaxC= 1.00D-01 BMatC= 3.95D-06 BMatP= 3.95D-06
 IDIUse=3 WtCom= 9.98D-01 WtEn= 1.74D-03
 Coeff-Com:  0.100D+01
 Coeff-En:   0.100D+01
 Coeff:      0.100D+01
 Gap=     0.101 Goal=   None    Shift=    0.000
 RMSDP=2.02D-06 MaxDP=1.83D-04 DE= 3.73D-05 OVMax= 4.29D-04

 Cycle  12  Pass 1  IDiag  1:
 RMSU=  4.32D-05    CP:  1.00D+00
 E= -2027.61409801472     Delta-E=       -0.000001656184 Rises=F Damp=F
 DIIS: error= 5.65D-05 at cycle   2 NSaved=   2.
 NSaved= 2 IEnMin= 2 EnMin= -2027.61409801472     IErMin= 2 ErrMin= 5.65D-05
 ErrMax= 5.65D-05  0.00D+00 EMaxC= 1.00D-01 BMatC= 2.80D-06 BMatP= 3.95D-06
 IDIUse=1 WtCom= 1.00D+00 WtEn= 0.00D+00
 Coeff-Com:  0.433D+00 0.567D+00
 Coeff:      0.433D+00 0.567D+00
 Gap=     0.101 Goal=   None    Shift=    0.000
 RMSDP=4.14D-06 MaxDP=4.60D-04 DE=-1.66D-06 OVMax= 7.79D-04

 Cycle  13  Pass 1  IDiag  1:
 RMSU=  4.13D-06    CP:  1.00D+00  9.96D-01
 E= -2027.61409629420     Delta-E=        0.000001720519 Rises=F Damp=F
 DIIS: error= 8.62D-05 at cycle   3 NSaved=   3.
 NSaved= 3 IEnMin= 2 EnMin= -2027.61409801472     IErMin= 2 ErrMin= 5.65D-05
 ErrMax= 8.62D-05  0.00D+00 EMaxC= 1.00D-01 BMatC= 4.95D-06 BMatP= 2.80D-06
 IDIUse=1 WtCom= 1.00D+00 WtEn= 0.00D+00
 Coeff-Com:  0.141D-01 0.565D+00 0.420D+00
 Coeff:      0.141D-01 0.565D+00 0.420D+00
 Gap=     0.101 Goal=   None    Shift=    0.000
 RMSDP=2.49D-06 MaxDP=3.00D-04 DE= 1.72D-06 OVMax= 5.37D-04

 Cycle  14  Pass 1  IDiag  1:
 RMSU=  6.29D-07    CP:  1.00D+00  9.98D-01  4.18D-01
 E= -2027.61410012713     Delta-E=       -0.000003832933 Rises=F Damp=F
 DIIS: error= 1.44D-05 at cycle   4 NSaved=   4.
 NSaved= 4 IEnMin= 4 EnMin= -2027.61410012713     IErMin= 4 ErrMin= 1.44D-05
 ErrMax= 1.44D-05  0.00D+00 EMaxC= 1.00D-01 BMatC= 1.55D-07 BMatP= 2.80D-06
 IDIUse=1 WtCom= 1.00D+00 WtEn= 0.00D+00
 Coeff-Com:  0.735D-03 0.399D+00 0.307D+00 0.294D+00
 Coeff:      0.735D-03 0.399D+00 0.307D+00 0.294D+00
 Gap=     0.101 Goal=   None    Shift=    0.000
 RMSDP=4.57D-07 MaxDP=4.96D-05 DE=-3.83D-06 OVMax= 7.99D-05

 Cycle  15  Pass 1  IDiag  1:
 RMSU=  1.07D-07    CP:  1.00D+00  9.98D-01  4.30D-01  2.99D-01
 E= -2027.61410025194     Delta-E=       -0.000000124811 Rises=F Damp=F
 DIIS: error= 1.75D-06 at cycle   5 NSaved=   5.
 NSaved= 5 IEnMin= 5 EnMin= -2027.61410025194     IErMin= 5 ErrMin= 1.75D-06
 ErrMax= 1.75D-06  0.00D+00 EMaxC= 1.00D-01 BMatC= 3.65D-09 BMatP= 1.55D-07
 IDIUse=1 WtCom= 1.00D+00 WtEn= 0.00D+00
 Coeff-Com:  0.694D-04 0.263D+00 0.202D+00 0.205D+00 0.330D+00
 Coeff:      0.694D-04 0.263D+00 0.202D+00 0.205D+00 0.330D+00
 Gap=     0.101 Goal=   None    Shift=    0.000
 RMSDP=7.53D-08 MaxDP=7.33D-06 DE=-1.25D-07 OVMax= 1.02D-05

 Cycle  16  Pass 1  IDiag  1:
 RMSU=  3.03D-08    CP:  1.00D+00  9.98D-01  4.29D-01  3.12D-01  3.62D-01
 E= -2027.61410025498     Delta-E=       -0.000000003041 Rises=F Damp=F
 DIIS: error= 6.33D-07 at cycle   6 NSaved=   6.
 NSaved= 6 IEnMin= 6 EnMin= -2027.61410025498     IErMin= 6 ErrMin= 6.33D-07
 ErrMax= 6.33D-07  0.00D+00 EMaxC= 1.00D-01 BMatC= 2.07D-10 BMatP= 3.65D-09
 IDIUse=1 WtCom= 1.00D+00 WtEn= 0.00D+00
 Coeff-Com: -0.240D-05 0.153D+00 0.118D+00 0.121D+00 0.231D+00 0.378D+00
 Coeff:     -0.240D-05 0.153D+00 0.118D+00 0.121D+00 0.231D+00 0.378D+00
 Gap=     0.101 Goal=   None    Shift=    0.000
 RMSDP=2.03D-08 MaxDP=2.00D-06 DE=-3.04D-09 OVMax= 3.26D-06

 Cycle  17  Pass 1  IDiag  1:
 RMSU=  1.11D-08    CP:  1.00D+00  9.98D-01  4.29D-01  3.07D-01  3.92D-01
                    CP:  4.59D-01
 E= -2027.61410025511     Delta-E=       -0.000000000132 Rises=F Damp=F
 DIIS: error= 2.12D-07 at cycle   7 NSaved=   7.
 NSaved= 7 IEnMin= 7 EnMin= -2027.61410025511     IErMin= 7 ErrMin= 2.12D-07
 ErrMax= 2.12D-07  0.00D+00 EMaxC= 1.00D-01 BMatC= 2.47D-11 BMatP= 2.07D-10
 IDIUse=1 WtCom= 1.00D+00 WtEn= 0.00D+00
 Coeff-Com: -0.109D-04 0.737D-01 0.571D-01 0.585D-01 0.120D+00 0.273D+00
 Coeff-Com:  0.418D+00
 Coeff:     -0.109D-04 0.737D-01 0.571D-01 0.585D-01 0.120D+00 0.273D+00
 Coeff:      0.418D+00
 Gap=     0.101 Goal=   None    Shift=    0.000
 RMSDP=6.73D-09 MaxDP=6.88D-07 DE=-1.32D-10 OVMax= 9.49D-07

 SCF Done:  E(RB-LYP) =  -2027.61410026     A.U. after   17 cycles
            NFock= 17  Conv=0.67D-08     -V/T= 2.0089
 KE= 2.009720431203D+03 PE=-1.344750381857D+04 EE= 5.053641843943D+03
 Leave Link  502 at Wed Jan 18 03:21:58 2023, MaxMem=   262144000 cpu:             817.1 elap:             102.5
 (Enter /dragofs/sw/campus/0.2/software/gaussian/16.gaussian/gaussian/g16_legacy/l601.exe)
 Copying SCF densities to generalized density rwf, IOpCl= 0 IROHF=0.

 **********************************************************************

            Population analysis using the SCF density.

 **********************************************************************

 Orbital symmetries:
       Occupied  (A) (A) (A) (A) (A) (A) (A) (A) (A) (A) (A) (A)
                 (A) (A) (A) (A) (A) (A) (A) (A) (A) (A) (A) (A)
                 (A) (A) (A) (A) (A) (A) (A) (A) (A) (A) (A) (A)
                 (A) (A) (A) (A) (A) (A) (A) (A) (A) (A) (A) (A)
                 (A) (A) (A) (A) (A) (A) (A) (A) (A) (A) (A) (A)
                 (A) (A) (A) (A) (A) (A) (A) (A) (A) (A) (A) (A)
                 (A) (A) (A) (A) (A) (A) (A) (A) (A) (A) (A) (A)
                 (A) (A) (A) (A) (A) (A) (A) (A) (A) (A) (A) (A)
                 (A) (A) (A) (A) (A) (A) (A) (A) (A) (A) (A) (A)
                 (A) (A) (A) (A) (A) (A) (A) (A) (A) (A) (A) (A)
                 (A) (A) (A) (A) (A) (A) (A) (A) (A) (A) (A) (A)
                 (A) (A) (A) (A) (A) (A) (A) (A) (A) (A) (A) (A)
                 (A) (A) (A) (A) (A) (A) (A) (A)
       Virtual   (A) (A) (A) (A) (A) (A) (A) (A) (A) (A) (A) (A)
                 (A) (A) (A) (A) (A) (A) (A) (A) (A) (A) (A) (A)
                 (A) (A) (A) (A) (A) (A) (A) (A) (A) (A) (A) (A)
                 (A) (A) (A) (A) (A) (A) (A) (A) (A) (A) (A) (A)
                 (A) (A) (A) (A) (A) (A) (A) (A) (A) (A) (A) (A)
                 (A) (A) (A) (A) (A) (A) (A) (A) (A) (A) (A) (A)
                 (A) (A) (A) (A) (A) (A) (A) (A) (A) (A) (A) (A)
                 (A) (A) (A) (A) (A) (A) (A) (A) (A) (A) (A) (A)
                 (A) (A) (A) (A) (A) (A) (A) (A) (A) (A) (A) (A)
                 (A) (A) (A) (A) (A) (A) (A) (A) (A) (A) (A) (A)
                 (A) (A) (A) (A) (A) (A) (A) (A) (A) (A) (A) (A)
                 (A) (A) (A) (A) (A) (A) (A) (A) (A) (A) (A) (A)
                 (A) (A) (A) (A) (A) (A) (A) (A) (A) (A) (A) (A)
                 (A) (A) (A) (A) (A) (A) (A) (A) (A) (A) (A) (A)
                 (A) (A) (A) (A) (A) (A) (A) (A) (A) (A) (A) (A)
                 (A) (A) (A) (A) (A) (A) (A) (A) (A) (A) (A) (A)
                 (A) (A) (A) (A) (A) (A) (A) (A) (A) (A) (A) (A)
                 (A) (A) (A) (A) (A) (A) (A) (A) (A) (A) (A) (A)
                 (A) (A) (A) (A) (A) (A) (A) (A) (A) (A) (A) (A)
                 (A) (A) (A) (A) (A) (A) (A) (A) (A) (A) (A) (A)
                 (A) (A) (A) (A) (A) (A) (A) (A) (A) (A) (A) (A)
                 (A) (A) (A) (A) (A) (A) (A) (A) (A) (A) (A) (A)
                 (A) (A) (A) (A) (A) (A) (A) (A) (A) (A) (A) (A)
                 (A) (A) (A) (A) (A) (A) (A) (A) (A) (A) (A) (A)
                 (A) (A) (A) (A) (A) (A) (A) (A) (A) (A) (A) (A)
                 (A) (A) (A) (A) (A) (A) (A) (A) (A) (A) (A) (A)
                 (A) (A) (A) (A) (A) (A) (A) (A) (A) (A) (A) (A)
                 (A) (A) (A) (A) (A) (A) (A) (A) (A) (A) (A) (A)
                 (A) (A) (A) (A) (A) (A) (A) (A) (A) (A) (A) (A)
                 (A) (A) (A) (A) (A) (A) (A) (A) (A) (A) (A) (A)
                 (A) (A) (A) (A) (A) (A) (A) (A) (A) (A) (A) (A)
                 (A) (A) (A) (A) (A) (A) (A) (A) (A) (A) (A) (A)
                 (A) (A) (A) (A) (A) (A) (A) (A) (A) (A) (A) (A)
                 (A) (A) (A) (A) (A) (A) (A) (A) (A) (A) (A) (A)
                 (A) (A) (A) (A) (A) (A) (A) (A) (A) (A) (A) (A)
                 (A) (A) (A) (A) (A) (A) (A) (A) (A) (A) (A) (A)
                 (A) (A) (A) (A) (A) (A) (A) (A) (A) (A) (A) (A)
                 (A) (A) (A) (A) (A) (A) (A) (A) (A) (A) (A) (A)
                 (A) (A) (A) (A) (A) (A) (A) (A) (A) (A) (A) (A)
                 (A) (A) (A) (A) (A) (A) (A) (A) (A) (A) (A) (A)
                 (A) (A) (A) (A) (A) (A) (A) (A) (A) (A) (A) (A)
                 (A) (A) (A) (A) (A) (A) (A) (A) (A) (A) (A) (A)
                 (A) (A) (A) (A) (A) (A) (A) (A) (A) (A) (A) (A)
                 (A) (A) (A) (A) (A) (A) (A) (A) (A) (A) (A) (A)
                 (A) (A) (A) (A) (A) (A) (A) (A) (A) (A) (A) (A)
                 (A) (A) (A) (A) (A) (A) (A) (A) (A) (A) (A) (A)
                 (A) (A) (A) (A) (A) (A) (A) (A) (A) (A) (A) (A)
                 (A) (A) (A) (A) (A) (A) (A) (A) (A) (A) (A) (A)
                 (A) (A) (A) (A) (A) (A) (A) (A) (A) (A) (A) (A)
                 (A) (A) (A) (A) (A) (A) (A) (A) (A) (A) (A) (A)
                 (A) (A) (A) (A) (A) (A) (A) (A) (A) (A) (A) (A)
                 (A) (A) (A) (A) (A) (A) (A) (A) (A) (A) (A) (A)
                 (A) (A) (A) (A) (A) (A) (A) (A) (A)
 The electronic state is 1-A.
 Alpha  occ. eigenvalues --  -18.85026 -18.84750 -18.84604 -18.84182 -18.82772
 Alpha  occ. eigenvalues --  -18.80841 -18.80086 -18.80025 -18.79289 -18.78146
 Alpha  occ. eigenvalues --  -18.78093 -18.77408 -10.06360 -10.05702 -10.05474
 Alpha  occ. eigenvalues --  -10.04909 -10.02946 -10.00527  -9.99707  -9.99082
 Alpha  occ. eigenvalues --   -9.98606  -9.98552  -9.98406  -9.97631  -9.96038
 Alpha  occ. eigenvalues --   -9.95932  -9.95549  -9.95070  -9.95027  -9.94844
 Alpha  occ. eigenvalues --   -9.94736  -9.94670  -9.94574  -9.94273  -9.94255
 Alpha  occ. eigenvalues --   -9.94043  -9.93050  -9.92443  -9.91791  -9.91146
 Alpha  occ. eigenvalues --   -9.90011  -1.02178  -1.01579  -1.00775  -1.00317
 Alpha  occ. eigenvalues --   -0.99992  -0.94606  -0.93524  -0.92865  -0.92218
 Alpha  occ. eigenvalues --   -0.91393  -0.91203  -0.90816  -0.79372  -0.79198
 Alpha  occ. eigenvalues --   -0.73614  -0.72404  -0.71947  -0.70745  -0.69012
 Alpha  occ. eigenvalues --   -0.68241  -0.67763  -0.67448  -0.65515  -0.63821
 Alpha  occ. eigenvalues --   -0.61165  -0.60984  -0.59412  -0.57039  -0.56241
 Alpha  occ. eigenvalues --   -0.55688  -0.55396  -0.55316  -0.54064  -0.53507
 Alpha  occ. eigenvalues --   -0.52636  -0.51235  -0.50398  -0.49790  -0.48828
 Alpha  occ. eigenvalues --   -0.48356  -0.48247  -0.46600  -0.46496  -0.45502
 Alpha  occ. eigenvalues --   -0.44649  -0.43589  -0.43129  -0.42801  -0.42516
 Alpha  occ. eigenvalues --   -0.42243  -0.41667  -0.41211  -0.41051  -0.40723
 Alpha  occ. eigenvalues --   -0.40327  -0.40159  -0.40014  -0.39796  -0.39625
 Alpha  occ. eigenvalues --   -0.39438  -0.39104  -0.38603  -0.38453  -0.37813
 Alpha  occ. eigenvalues --   -0.37500  -0.37236  -0.37082  -0.36548  -0.36411
 Alpha  occ. eigenvalues --   -0.35608  -0.35405  -0.35219  -0.34753  -0.34311
 Alpha  occ. eigenvalues --   -0.33728  -0.33492  -0.33318  -0.32851  -0.32649
 Alpha  occ. eigenvalues --   -0.32430  -0.32375  -0.31576  -0.31374  -0.31170
 Alpha  occ. eigenvalues --   -0.30577  -0.30284  -0.30173  -0.29443  -0.29127
 Alpha  occ. eigenvalues --   -0.29004  -0.28665  -0.27030  -0.26843  -0.26625
 Alpha  occ. eigenvalues --   -0.26557  -0.25908  -0.25430  -0.25390  -0.25304
 Alpha  occ. eigenvalues --   -0.24071  -0.23983  -0.23642  -0.23457  -0.23306
 Alpha  occ. eigenvalues --   -0.22962  -0.22631  -0.22155  -0.21889  -0.21694
[...]
 Alpha  occ. eigenvalues --   -0.51727  -0.51127  -0.50029  -0.49890  -0.48141
 Alpha  occ. eigenvalues --   -0.48102  -0.47679  -0.47493  -0.45952  -0.45271
 Alpha  occ. eigenvalues --   -0.44517  -0.43338  -0.42397  -0.42030  -0.41810
 Alpha  occ. eigenvalues --   -0.41555  -0.41086  -0.40983  -0.40828  -0.40601
 Alpha  occ. eigenvalues --   -0.40483  -0.40360  -0.39943  -0.39423  -0.38967
 Alpha  occ. eigenvalues --   -0.38684  -0.38594  -0.38449  -0.38380  -0.38271
 Alpha  occ. eigenvalues --   -0.38069  -0.37928  -0.37621  -0.37062  -0.36562
 Alpha  occ. eigenvalues --   -0.35572  -0.35355  -0.34937  -0.34852  -0.34763
 Alpha  occ. eigenvalues --   -0.33740  -0.33135  -0.32814  -0.32347  -0.32084
 Alpha  occ. eigenvalues --   -0.31869  -0.31731  -0.31674  -0.31427  -0.31128
 Alpha  occ. eigenvalues --   -0.30989  -0.30827  -0.30509  -0.30037  -0.29794
 Alpha  occ. eigenvalues --   -0.29468  -0.28930  -0.27872  -0.26946  -0.26791
 Alpha  occ. eigenvalues --   -0.26411  -0.26384  -0.26017  -0.25631  -0.25074
 Alpha  occ. eigenvalues --   -0.24021  -0.23626  -0.23433  -0.23361  -0.23306
 Alpha  occ. eigenvalues --   -0.23076  -0.23064  -0.22747  -0.22588  -0.22387
 Alpha  occ. eigenvalues --   -0.20288  -0.19625
 Alpha virt. eigenvalues --   -0.09871  -0.09375  -0.04647  -0.04052  -0.03097
 Alpha virt. eigenvalues --   -0.02472  -0.01305   0.02119   0.03644   0.04277
 Alpha virt. eigenvalues --    0.04398   0.05132   0.05245   0.06433   0.06683
 Alpha virt. eigenvalues --    0.07518   0.07754   0.08185   0.08535   0.08700
 Alpha virt. eigenvalues --    0.08832   0.09221   0.10017   0.10381   0.10749
 Alpha virt. eigenvalues --    0.11096   0.11401   0.11709   0.11826   0.11999
 Alpha virt. eigenvalues --    0.12215   0.12289   0.12640   0.12799   0.13159
 Alpha virt. eigenvalues --    0.13276   0.13720   0.14314   0.14619   0.14679
 Alpha virt. eigenvalues --    0.15074   0.15415   0.15684   0.15809   0.16151
 Alpha virt. eigenvalues --    0.16278   0.16635   0.17514   0.17631   0.17924
 Alpha virt. eigenvalues --    0.18187   0.18405   0.18844   0.19387   0.19721
 Alpha virt. eigenvalues --    0.19925   0.19998   0.20706   0.20872   0.21665
 Alpha virt. eigenvalues --    0.21958   0.22311   0.22659   0.22887   0.23045
 Alpha virt. eigenvalues --    0.23247   0.24502   0.24734   0.25158   0.25583
 Alpha virt. eigenvalues --    0.25640   0.25814   0.27358   0.29394   0.29617
 Alpha virt. eigenvalues --    0.30020   0.30294   0.30826   0.34571   0.34863
 Alpha virt. eigenvalues --    0.36017   0.37460   0.37766   0.40755   0.42328
 Alpha virt. eigenvalues --    0.42995   0.43896   0.44548   0.45149   0.45560
 Alpha virt. eigenvalues --    0.45626   0.45864   0.46300   0.46764   0.47506
 Alpha virt. eigenvalues --    0.47640   0.47786   0.48089   0.48544   0.48904
 Alpha virt. eigenvalues --    0.49275   0.49468   0.49583   0.50073   0.50169
 Alpha virt. eigenvalues --    0.51157   0.51340   0.51650   0.51764   0.52712
 Alpha virt. eigenvalues --    0.52940   0.53101   0.53353   0.53556   0.53969
 Alpha virt. eigenvalues --    0.54192   0.54397   0.54906   0.55030   0.55306
 Alpha virt. eigenvalues --    0.55737   0.55962   0.56690   0.57012   0.57064
 Alpha virt. eigenvalues --    0.57336   0.58001   0.58616   0.58703   0.58866
 Alpha virt. eigenvalues --    0.59040   0.59532   0.59875   0.60558   0.61139
 Alpha virt. eigenvalues --    0.61607   0.61864   0.62301   0.62486   0.62739
 Alpha virt. eigenvalues --    0.62929   0.64191   0.64643   0.65670   0.65744
 Alpha virt. eigenvalues --    0.65963   0.67210   0.67694   0.67741   0.68136
 Alpha virt. eigenvalues --    0.68753   0.70262   0.70706   0.71626   0.71962
 Alpha virt. eigenvalues --    0.72260   0.72419   0.72653   0.72898   0.73477
 Alpha virt. eigenvalues --    0.73654   0.74422   0.74541   0.74828   0.75455
 Alpha virt. eigenvalues --    0.75740   0.75927   0.76291   0.76387   0.76973
 Alpha virt. eigenvalues --    0.77030   0.77386   0.78073   0.78534   0.78570
 Alpha virt. eigenvalues --    0.79366   0.80006   0.80351   0.80872   0.81209
 Alpha virt. eigenvalues --    0.81575   0.81983   0.82346   0.82408   0.82706
 Alpha virt. eigenvalues --    0.83183   0.83496   0.83839   0.84190   0.84384
 Alpha virt. eigenvalues --    0.85108   0.85497   0.85815   0.86414   0.86449
 Alpha virt. eigenvalues --    0.86850   0.87847   0.88204   0.88742   0.88892
 Alpha virt. eigenvalues --    0.89399   0.89739   0.90111   0.90493   0.91043
 Alpha virt. eigenvalues --    0.91550   0.91789   0.92795   0.92979   0.93298
 Alpha virt. eigenvalues --    0.93739   0.93877   0.94267   0.94826   0.95427
 Alpha virt. eigenvalues --    0.96399   0.96922   0.97343   0.98237   0.98404
 Alpha virt. eigenvalues --    0.98683   0.99675   1.00721   1.00919   1.01710
 Alpha virt. eigenvalues --    1.02494   1.03007   1.04435   1.04608   1.05184
 Alpha virt. eigenvalues --    1.06031   1.06106   1.06356   1.07723   1.08659
 Alpha virt. eigenvalues --    1.09750   1.10037   1.10959   1.11854   1.13276
 Alpha virt. eigenvalues --    1.14326   1.15302   1.15655   1.16005   1.16842
 Alpha virt. eigenvalues --    1.17526   1.18182   1.18313   1.19259   1.19737
 Alpha virt. eigenvalues --    1.20945   1.21802   1.21928   1.22766   1.22961
 Alpha virt. eigenvalues --    1.23500   1.23962   1.24090   1.24622   1.24928
 Alpha virt. eigenvalues --    1.25329   1.25586   1.26057   1.26429   1.27583
 Alpha virt. eigenvalues --    1.29639   1.29984   1.30880   1.31403   1.31794
 Alpha virt. eigenvalues --    1.31969   1.32108   1.32447   1.33015   1.33251
 Alpha virt. eigenvalues --    1.33496   1.33809   1.35130   1.35832   1.36665
 Alpha virt. eigenvalues --    1.37297   1.37563   1.37879   1.39054   1.39516
 Alpha virt. eigenvalues --    1.39805   1.40211   1.40565   1.42346   1.43296
 Alpha virt. eigenvalues --    1.43323   1.44474   1.45297   1.45797   1.46726
 Alpha virt. eigenvalues --    1.49218   1.49594   1.49716   1.51066   1.51904
 Alpha virt. eigenvalues --    1.52285   1.53476   1.53885   1.57128   1.57297
 Alpha virt. eigenvalues --    1.57886   1.58500   1.58677   1.59098   1.60257
 Alpha virt. eigenvalues --    1.60492   1.61586   1.62636   1.63762   1.64341
 Alpha virt. eigenvalues --    1.64903   1.65172   1.65898   1.66302   1.66828
 Alpha virt. eigenvalues --    1.67433   1.67633   1.68843   1.68994   1.69344
 Alpha virt. eigenvalues --    1.70016   1.70294   1.70910   1.71166   1.71503
 Alpha virt. eigenvalues --    1.72354   1.72755   1.74307   1.75101   1.76049
 Alpha virt. eigenvalues --    1.76474   1.77414   1.77608   1.77770   1.78275
 Alpha virt. eigenvalues --    1.78324   1.78713   1.79058   1.79337   1.79536
 Alpha virt. eigenvalues --    1.80209   1.80349   1.80637   1.80814   1.81231
 Alpha virt. eigenvalues --    1.81786   1.82558   1.82790   1.83225   1.83577
 Alpha virt. eigenvalues --    1.84014   1.84974   1.85145   1.85195   1.85520
 Alpha virt. eigenvalues --    1.86199   1.86414   1.87122   1.87239   1.87904
 Alpha virt. eigenvalues --    1.88133   1.88619   1.88830   1.89156   1.89461
 Alpha virt. eigenvalues --    1.89566   1.90098   1.91090   1.91453   1.91827
 Alpha virt. eigenvalues --    1.92293   1.92512   1.92838   1.93683   1.94329
 Alpha virt. eigenvalues --    1.94663   1.95769   1.96851   1.96953   1.98274
 Alpha virt. eigenvalues --    1.98823   1.99243   1.99513   1.99595   2.00181
 Alpha virt. eigenvalues --    2.00577   2.00640   2.01105   2.01439   2.01491
 Alpha virt. eigenvalues --    2.01996   2.02263   2.02479   2.02732   2.03025
 Alpha virt. eigenvalues --    2.03137   2.05064   2.05238   2.06029   2.06594
 Alpha virt. eigenvalues --    2.06897   2.07072   2.07462   2.08399   2.08823
 Alpha virt. eigenvalues --    2.10254   2.10790   2.12109   2.12420   2.15496
 Alpha virt. eigenvalues --    2.15909   2.16591   2.17176   2.17863   2.18009
 Alpha virt. eigenvalues --    2.19180   2.19507   2.20736   2.20852   2.21024
 Alpha virt. eigenvalues --    2.21438   2.21785   2.21903   2.23821   2.24478
 Alpha virt. eigenvalues --    2.24856   2.25820   2.26645   2.27494   2.27991
 Alpha virt. eigenvalues --    2.28770   2.28854   2.29026   2.29323   2.30189
 Alpha virt. eigenvalues --    2.30417   2.30809   2.31908   2.32112   2.32502
 Alpha virt. eigenvalues --    2.33254   2.33590   2.33865   2.33942   2.34470
 Alpha virt. eigenvalues --    2.35137   2.35304   2.37122   2.37343   2.38368
 Alpha virt. eigenvalues --    2.38900   2.41024   2.41131   2.41647   2.42568
 Alpha virt. eigenvalues --    2.43591   2.43961   2.44560   2.45517   2.46242
 Alpha virt. eigenvalues --    2.46778   2.47218   2.47551   2.48170   2.48593
 Alpha virt. eigenvalues --    2.49019   2.49570   2.50057   2.50355   2.51086
 Alpha virt. eigenvalues --    2.51436   2.51619   2.52112   2.52348   2.53002
 Alpha virt. eigenvalues --    2.53578   2.54514   2.54980   2.55542   2.56195
 Alpha virt. eigenvalues --    2.56639   2.57061   2.57222   2.57802   2.58155
 Alpha virt. eigenvalues --    2.59695   2.60162   2.60568   2.61092   2.61599
 Alpha virt. eigenvalues --    2.62206   2.62283   2.63054   2.63548   2.64220
 Alpha virt. eigenvalues --    2.64893   2.65791   2.66023   2.66227   2.66595
 Alpha virt. eigenvalues --    2.67507   2.67827   2.68003   2.68213   2.68766
 Alpha virt. eigenvalues --    2.69365   2.69570   2.70588   2.71731   2.71898
 Alpha virt. eigenvalues --    2.72827   2.73773   2.74617   2.75690   2.76304
 Alpha virt. eigenvalues --    2.76776   2.77366   2.77993   2.78963   2.79035
 Alpha virt. eigenvalues --    2.79926   2.80083   2.80761   2.81870   2.82206
 Alpha virt. eigenvalues --    2.83028   2.83760   2.84583   2.84999   2.85749
 Alpha virt. eigenvalues --    2.86575   2.87309   2.87486   2.87817   2.88852
 Alpha virt. eigenvalues --    2.89023   2.90581   2.92964   2.94756   2.96177
 Alpha virt. eigenvalues --    2.96325   3.00170   3.00451   3.02786   3.04067
 Alpha virt. eigenvalues --    3.05045   3.06581   3.07770   3.08089   3.11636
 Alpha virt. eigenvalues --    3.11679   3.12107   3.13467   3.14994   3.15783
 Alpha virt. eigenvalues --    3.17276   3.18978   3.20004   3.21051   3.21884
 Alpha virt. eigenvalues --    3.22609   3.22815   3.23605   3.25165   3.25506
 Alpha virt. eigenvalues --    3.27264   3.28625   3.29417   3.29768   3.31590
 Alpha virt. eigenvalues --    3.32809   3.32815   3.34250   3.34789   3.37596
 Alpha virt. eigenvalues --    3.38092   3.38342   3.39580   3.41431   3.41920
 Alpha virt. eigenvalues --    3.42070   3.43497   3.44011   3.45870   3.48722
 Alpha virt. eigenvalues --    3.70727   3.71359   3.74750   3.83786   3.86519
 Alpha virt. eigenvalues --    3.91722   3.93715   3.94264   3.98658   4.00856
 Alpha virt. eigenvalues --    4.01174   4.04210   4.05271   4.07023   4.07732
 Alpha virt. eigenvalues --    4.14028   4.14928   4.16657   4.22863   4.23957
 Alpha virt. eigenvalues --    4.26724   4.29590   4.30759   4.31261   4.31826
 Alpha virt. eigenvalues --    4.32275   4.34381   4.36081   4.36572   4.37106
 Alpha virt. eigenvalues --    4.37852   4.38996   4.45141   4.49080   4.49234
 Alpha virt. eigenvalues --    4.53213   4.54276   4.56011   4.57200   4.60907
 Alpha virt. eigenvalues --    4.68505   4.72678   4.73009
          Condensed to atoms (all electrons):
 Mulliken charges:
               1
     1  C    0.544394
     2  C   -0.101923
     3  H    0.088419
     4  C   -0.089031
     5  H    0.095086
     6  C    0.082598
     7  C   -0.096995
     8  H    0.090895
     9  C   -0.095325
    10  H    0.095370
    11  C    0.090559
    12  O   -0.475363
    13  C    0.568954
    14  O   -0.449512
    15  O   -0.440519
    16  O   -0.463515
    17  C    0.053195
    18  H    0.143145
    19  H    0.105843
    20  C    0.027051
    21  H    0.091409
    22  H    0.086887
    23  O   -0.471723
    24  H    0.300420
    25  C    0.487734
    26  C   -0.096241
    27  H    0.087546
    28  C   -0.091821
    29  H    0.094469
    30  C    0.107953
    31  C   -0.097987
    32  H    0.092787
    33  C   -0.085663
    34  H    0.094390
    35  C    0.079615
    36  O   -0.460096
    37  C    0.545288
    38  O   -0.447757
    39  O   -0.460930
    40  O   -0.443884
    41  C    0.047942
    42  H    0.139555
    43  H    0.114080
    44  C    0.028523
    45  H    0.122475
    46  H    0.111532
    47  H    0.308249
    48  H    0.116806
    49  C   -0.307860
    50  C   -0.134583
    51  H    0.088266
    52  H    0.079228
    53  H    0.066717
    54  H    0.107382
    55  C   -0.104337
    56  C   -0.162174
    57  H    0.095746
    58  H    0.100672
    59  H    0.076133
    60  C    0.592622
    61  O   -0.439307
    62  O   -0.471107
    63  C    0.050811
    64  H    0.111822
    65  H    0.124392
    66  C   -0.020383
    67  C    0.097341
    68  H    0.086161
    69  H    0.137625
    70  H    0.081569
    71  O   -0.434333
    72  C   -0.289836
    73  H    0.112439
    74  H    0.085924
    75  H    0.094185
 Sum of Mulliken charges =  -0.00000
 Mulliken charges with hydrogens summed into heavy atoms:
               1
     1  C    0.544394
     2  C   -0.013504
     4  C    0.006054
     6  C    0.082598
     7  C   -0.006100
     9  C    0.000045
    11  C    0.090559
    12  O   -0.475363
    13  C    0.568954
    14  O   -0.449512
    15  O   -0.440519
    16  O   -0.463515
    17  C    0.302183
    20  C    0.205347
    23  O   -0.171302
    25  C    0.487734
    26  C   -0.008695
    28  C    0.002649
    30  C    0.107953
    31  C   -0.005199
    33  C    0.008727
    35  C    0.079615
    36  O   -0.460096
    37  C    0.545288
    38  O   -0.447757
    39  O   -0.152681
    40  O   -0.443884
    41  C    0.301577
    44  C    0.262530
    49  C   -0.023560
    50  C    0.039515
    55  C   -0.008591
    56  C    0.014632
    60  C    0.592622
    61  O   -0.439307
    62  O   -0.471107
    63  C    0.287024
    66  C    0.203403
    67  C    0.178910
    71  O   -0.434333
    72  C    0.002712
 Electronic spatial extent (au):  <R**2>=          33642.6500
 Charge=              0.0000 electrons
 Dipole moment (field-independent basis, Debye):
    X=             -1.6777    Y=             -3.6140    Z=              0.7764  Tot=              4.0594
 Quadrupole moment (field-independent basis, Debye-Ang):
   XX=           -202.4808   YY=           -226.0431   ZZ=           -247.4687
   XY=             19.9962   XZ=            -25.9191   YZ=              9.7174
 Traceless Quadrupole moment (field-independent basis, Debye-Ang):
   XX=             22.8501   YY=             -0.7122   ZZ=            -22.1379
   XY=             19.9962   XZ=            -25.9191   YZ=              9.7174
 Octapole moment (field-independent basis, Debye-Ang**2):
  XXX=           -179.7113  YYY=             96.1070  ZZZ=             28.7534  XYY=             68.3856
  XXY=            -88.8272  XXZ=             42.5810  XZZ=            -38.3652  YZZ=            -33.5533
  YYZ=             36.5138  XYZ=             64.0487
 Hexadecapole moment (field-independent basis, Debye-Ang**3):
 XXXX=         -28363.6374 YYYY=         -10741.6938 ZZZZ=          -2063.5295 XXXY=            473.5345
 XXXZ=           -879.0591 YYYX=            791.7234 YYYZ=            188.9678 ZZZX=           -212.3993
 ZZZY=            -28.4588 XXYY=          -6157.2551 XXZZ=          -5418.6495 YYZZ=          -2424.4119
 XXYZ=            210.8930 YYXZ=           -101.1471 ZZXY=             83.3608
 N-N= 4.682817158342D+03 E-N=-1.409995286012D+04  KE= 2.008813320500D+03
 No NMR shielding tensors so no spin-rotation constants.
 Leave Link  601 at Wed Jan 18 05:19:39 2023, MaxMem=   262144000 cpu:               3.0 elap:               0.4
 (Enter /dragofs/sw/campus/0.2/software/gaussian/16.gaussian/gaussian/g16_legacy/l9999.exe)
 1\1\GINC-DRAGO31010033\FOpt\RBLYP\6-31G(d,p)\C29H34O12\JRAMOS\18-Jan-2
 023\0\\#p opt blyp/6-31G** EmpiricalDispersion=GD3\\Conformer number 1
 99. Energy MM = 0.000 kcal/mol\\0,1\C,21.4818929972,2.3588371836,32.74
 63992464\C,19.3933499143,1.3475274304,35.7414637752\H,18.5215360572,0.
 7284331048,35.9529002306\C,19.866009924,1.4856511498,34.431864212\H,19
 .3717068878,0.9849674493,33.5978258326\C,21.0074951362,2.274469381,34.
 1662389645\C,21.6677126679,2.9338433978,35.228112732\H,22.549272475,3.
 5403248069,35.0205597459\C,21.1909408447,2.799682061,36.5368506373\H,2
 1.6859120516,3.2982719336,37.3717345396\C,20.0584569208,1.9998407614,3
 6.803923135\O,20.1408845431,2.4603984073,39.1756337662\C,19.6310957872
 ,1.8544348364,38.2341711458\O,18.6216249126,0.9416074431,38.3795342881
 \O,22.5862189691,3.1699102382,32.6246871896\O,20.9606254074,1.77334179
 4,31.7997549785\C,18.2085786227,0.6827937241,39.7586530263\H,19.101752
 4649,0.5626272636,40.3838643776\H,17.6289665779,1.5439022829,40.130244
 491\C,17.3652765628,-0.5827722282,39.7614992233\H,16.5769580745,-0.505
 8151439,38.9865736883\H,16.8672501996,-0.655779111,40.7501290578\O,18.
 2410531993,-1.7011394677,39.5255655271\H,17.6935506381,-2.5062331128,3
 9.4579657515\C,29.7506944029,0.5797879487,36.2372326555\C,26.861956252
 9,1.7471334402,34.0835017682\H,26.1010856027,2.5277624595,34.096578784
 4\C,27.7975943182,1.6493996213,35.11883078\H,27.7893682094,2.349926653
 6,35.955460703\C,28.7770402729,0.6316826388,35.0999787751\C,28.8100772
 704,-0.2922066089,34.0308847184\H,29.5654289103,-1.078264732,34.019376
 5997\C,27.8738290275,-0.1947280528,32.9951652951\H,27.8787095302,-0.89
 90363983,32.1617398988\C,26.8962804471,0.8241412747,33.0130249184\O,25
 .8652446353,0.062521685,30.9568053421\C,25.9143179637,0.8707290925,31.
 8797588782\O,25.0563413694,1.938230959,31.9941952802\O,30.6524313653,-
 0.4538899201,36.1181711055\O,29.7665179716,1.3607406189,37.1846460664\
 C,24.0139870073,2.0126549435,30.9775401246\H,23.4039196075,1.098359170
 8,31.0023263492\H,24.4682874382,2.0972882941,29.975928712\C,23.1756260
 069,3.2471192327,31.2905874685\H,22.3826126431,3.3534190531,30.5343287
 015\H,23.7986666041,4.1512753082,31.3195351385\H,31.2270103728,-0.3858
 723507,36.9121380554\H,19.563693297,1.1565514764,42.8710150361\C,19.00
 58921706,0.366692867,43.3992283105\C,19.8931833196,-0.8766988758,43.61
 97223369\H,18.6579761842,0.7871271786,44.35612862\H,18.1126304034,0.11
 98071188,42.7995495792\H,19.3265897827,-1.6526981309,44.164245795\H,20
 .7526357488,-0.5997739827,44.2500057048\C,20.416077594,-1.4859771198,4
 2.2975376898\C,21.1061675884,-2.8805186999,42.4776376777\H,19.58040333
 74,-1.6364414723,41.5937083532\H,21.4125139028,-3.2361919661,41.479231
 4961\H,20.3387173467,-3.5862413019,42.8428955993\C,21.4147551314,-0.53
 81609058,41.6254938384\O,21.3680380654,-0.6900850144,40.2621788372\O,2
 2.1927275864,0.2167698917,42.1978719379\C,22.3599452061,0.0527109164,3
 9.4943752152\H,23.3631443974,-0.1450216605,39.9067194272\H,22.15431974
 59,1.1315611821,39.5803805892\C,21.114938525,-1.1371237157,37.49099689
 99\C,22.2724321227,-0.3967241347,38.047294984\H,20.8878370557,-1.02598
 77268,36.4226356197\H,20.2683902732,-1.3856636224,38.1391633602\H,22.8
 583824982,0.2389896709,37.3649845274\O,22.3710385387,-1.8201940898,37.
 7950754352\C,22.3189310466,-2.8908319774,43.4324114181\H,23.0788767462
 ,-2.1571915472,43.1225109204\H,22.7895298557,-3.8867435387,43.44866808
 25\H,22.0240834642,-2.6442407365,44.4644470279\\Version=EM64L-G16RevA.
 03\State=1-A\HF=-2027.7533561\RMSD=8.854e-09\RMSF=1.179e-06\Dipole=-1.
 5482588,0.0602572,-0.3871772\Quadrupole=22.0918826,-4.8387567,-17.2531
 259,5.5673021,-13.2974284,-17.6652975\PG=C01 [X(C29H34O12)]\\@


 ERROR IS THE FORCE THAT WELDS MEN TOGETHER....
 TRUTH IS COMMUNICATED TO MEN ONLY BY DEEDS OF TRUTH.
           TOLSTOI,MY RELIGION
 Job cpu time:       0 days 15 hours 51 minutes 20.3 seconds.
 Elapsed time:       0 days  1 hours 59 minutes 29.7 seconds.
 File lengths (MBytes):  RWF=    383 Int=      0 D2E=      0 Chk=     48 Scr=      1
 Normal termination of Gaussian 16 at Wed Jan 18 05:19:39 2023.
